|===============================================================================
|
|  DFTB+ release 24.1
|
|  Copyright (C) 2006 - 2024  DFTB+ developers group
|
|===============================================================================
|
|  When publishing results obtained with DFTB+, please cite the following
|  reference:
|
|  * DFTB+, a software package for efficient approximate density functional
|    theory based atomistic simulations, J. Chem. Phys. 152, 124101 (2020).
|    [doi: 10.1063/1.5143190]
|
|  You should also cite additional publications crediting the parametrization
|  data you use. Please consult the documentation of the SK-files for the
|  references.
|
|===============================================================================

Reading input file 'dftb_in.hsd'
Parser version: 14

--------------------------------------------------------------------------------
WARNING!
-> This driver is deprecated and will be removed in future versions.
Please use the GeometryOptimisation driver instead.
Path: dftbplusinput/Driver/ConjugateGradient
Line: 5-11 (File: dftb_in.hsd)



Processed input in HSD format written to 'dftb_pin.hsd'

Starting initialization...
--------------------------------------------------------------------------------
WARNING!
-> Dipole printed for extended system : value printed is not well defined
MPI processes:               8
OpenMP threads:              1
BLACS orbital grid size:     2 x 4
BLACS atom grid size:        2 x 4
Chosen random seed:          1927803922
Current stacksize:           unlimited
Mode:                        Conjugate gradient relaxation
Self consistent charges:     Yes
SCC-tolerance:                 0.100000E-04
Max. scc iterations:                   1000
Shell resolved Hubbard:      Yes
Spin polarisation:           No
Nr. of up electrons:           218.000000
Nr. of down electrons:         218.000000
Periodic boundaries:         Yes
Lattice optimisation:        Yes
Pressure:                        0.000000
Electronic solver:           Relatively robust
Mixer:                       Broyden mixer
Mixing parameter:                  0.200000
Maximal SCC-cycles:                    1000
Nr. of chrg. vec. in memory:           1000
Nr. of moved atoms:                     114
Max. nr. of geometry steps:          100000
Force tolerance:               0.100000E-03
tblite library version:      0.3.0
-> parametrization:          GFN1-xTB
-> repulsion:                Yes
-> dispersion:               Yes
-> halogen bonding:          Yes
-> electrostatics:           Yes
   -> isotropic:             Yes
   -> anisotropic:           No
   -> third-order:           Yes
Electronic temperature:              0.100000E-07 H      0.272114E-06 eV
Initial charges:             Set automatically (system chrg:   0.000E+00)
Included shells:             H:  s, s2
                             C:  s, p
                             O:  s, p
                            Zr:  d, s, p
K-points and weights:           1:  0.125000  0.125000  0.125000     0.031250
                                2:  0.125000  0.125000  0.375000     0.031250
                                3:  0.125000  0.125000  0.625000     0.031250
                                4:  0.125000  0.125000  0.875000     0.031250
                                5:  0.125000  0.375000  0.125000     0.031250
                                6:  0.125000  0.375000  0.375000     0.031250
                                7:  0.125000  0.375000  0.625000     0.031250
                                8:  0.125000  0.375000  0.875000     0.031250
                                9:  0.125000  0.625000  0.125000     0.031250
                               10:  0.125000  0.625000  0.375000     0.031250
                               11:  0.125000  0.625000  0.625000     0.031250
                               12:  0.125000  0.625000  0.875000     0.031250
                               13:  0.125000  0.875000  0.125000     0.031250
                               14:  0.125000  0.875000  0.375000     0.031250
                               15:  0.125000  0.875000  0.625000     0.031250
                               16:  0.125000  0.875000  0.875000     0.031250
                               17:  0.375000  0.125000  0.125000     0.031250
                               18:  0.375000  0.125000  0.375000     0.031250
                               19:  0.375000  0.125000  0.625000     0.031250
                               20:  0.375000  0.125000  0.875000     0.031250
                               21:  0.375000  0.375000  0.125000     0.031250
                               22:  0.375000  0.375000  0.375000     0.031250
                               23:  0.375000  0.375000  0.625000     0.031250
                               24:  0.375000  0.375000  0.875000     0.031250
                               25:  0.375000  0.625000  0.125000     0.031250
                               26:  0.375000  0.625000  0.375000     0.031250
                               27:  0.375000  0.625000  0.625000     0.031250
                               28:  0.375000  0.625000  0.875000     0.031250
                               29:  0.375000  0.875000  0.125000     0.031250
                               30:  0.375000  0.875000  0.375000     0.031250
                               31:  0.375000  0.875000  0.625000     0.031250
                               32:  0.375000  0.875000  0.875000     0.031250

K-points in absolute space:     1:  0.004559  0.002632  0.001861
                                2:  0.004559  0.002632  0.013029
                                3:  0.004559  0.002632  0.024196
                                4:  0.004559  0.002632  0.035364
                                5:  0.004559  0.013161 -0.001861
                                6:  0.004559  0.013161  0.009306
                                7:  0.004559  0.013161  0.020474
                                8:  0.004559  0.013161  0.031642
                                9:  0.004559  0.023690 -0.005584
                               10:  0.004559  0.023690  0.005584
                               11:  0.004559  0.023690  0.016751
                               12:  0.004559  0.023690  0.027919
                               13:  0.004559  0.034219 -0.009306
                               14:  0.004559  0.034219  0.001861
                               15:  0.004559  0.034219  0.013029
                               16:  0.004559  0.034219  0.024196
                               17:  0.013677 -0.002632 -0.001861
                               18:  0.013677 -0.002632  0.009306
                               19:  0.013677 -0.002632  0.020474
                               20:  0.013677 -0.002632  0.031642
                               21:  0.013677  0.007897 -0.005584
                               22:  0.013677  0.007897  0.005584
                               23:  0.013677  0.007897  0.016751
                               24:  0.013677  0.007897  0.027919
                               25:  0.013677  0.018426 -0.009306
                               26:  0.013677  0.018426  0.001861
                               27:  0.013677  0.018426  0.013029
                               28:  0.013677  0.018426  0.024196
                               29:  0.013677  0.028955 -0.013029
                               30:  0.013677  0.028955 -0.001861
                               31:  0.013677  0.028955  0.009306
                               32:  0.013677  0.028955  0.020474

Extra options:
                             Mulliken analysis
Force type                   original

--------------------------------------------------------------------------------

***  Geometry step: 0, Lattice step: 0

 iSCC Total electronic   Diff electronic      SCC error    
    1    0.00000000E+00    0.00000000E+00    0.20019351E+01
    2   -0.26925043E+03   -0.26925043E+03    0.14790653E+01
    3   -0.27397104E+03   -0.47206074E+01    0.49928478E+01
    4   -0.21380229E+03    0.60168754E+02    0.50868004E+01
    5   -0.20657640E+03    0.72258836E+01    0.50437838E+01
    6   -0.20599264E+03    0.58376008E+00    0.28596478E+01
    7   -0.26999071E+03   -0.63998068E+02    0.17210820E+01
    8   -0.27526986E+03   -0.52791510E+01    0.72585177E+01
    9   -0.22891765E+03    0.46352210E+02    0.56378310E+01
   10   -0.24736728E+03   -0.18449626E+02    0.49476718E+01
   11   -0.25357774E+03   -0.62104585E+01    0.69802841E+01
   12   -0.23366609E+03    0.19911652E+02    0.69525658E+01
   13   -0.23397383E+03   -0.30774348E+00    0.69954656E+01
   14   -0.23332618E+03    0.64765108E+00    0.40861557E+01
   15   -0.25416176E+03   -0.20835577E+02    0.26376623E+01
   16   -0.26157864E+03   -0.74168823E+01    0.22894206E+01
   17   -0.26413570E+03   -0.25570646E+01    0.13308433E+01
   18   -0.27079369E+03   -0.66579924E+01    0.13007310E+01
   19   -0.27460107E+03   -0.38073737E+01    0.11075146E+01
   20   -0.27603060E+03   -0.14295292E+01    0.91308137E+00
   21   -0.27670742E+03   -0.67682122E+00    0.77723999E+00
   22   -0.27696792E+03   -0.26049689E+00    0.41323941E+00
   23   -0.27731685E+03   -0.34893174E+00    0.14234284E+00
   24   -0.27741442E+03   -0.97573359E-01    0.12776650E+00
   25   -0.27741655E+03   -0.21262506E-02    0.10156357E+00
   26   -0.27743103E+03   -0.14485589E-01    0.93371959E-01
   27   -0.27743302E+03   -0.19920357E-02    0.80977863E-01
   28   -0.27743574E+03   -0.27202416E-02    0.33345342E-01
   29   -0.27744051E+03   -0.47647000E-02    0.34387301E-01
   30   -0.27744046E+03    0.52053292E-04    0.39094697E-01
   31   -0.27744084E+03   -0.38696981E-03    0.42965334E-01
   32   -0.27744110E+03   -0.25509929E-03    0.42542418E-01
   33   -0.27744114E+03   -0.36973352E-04    0.39797367E-01
   34   -0.27744129E+03   -0.15242893E-03    0.35679878E-01
   35   -0.27744140E+03   -0.10753429E-03    0.32163331E-01
   36   -0.27744147E+03   -0.74548665E-04    0.29457528E-01
   37   -0.27744163E+03   -0.15649941E-03    0.27716402E-01
   38   -0.27744180E+03   -0.17711934E-03    0.25670564E-01
   39   -0.27744192E+03   -0.11742475E-03    0.22201074E-01
   40   -0.27744202E+03   -0.96279241E-04    0.20091675E-01
   41   -0.27744206E+03   -0.37073924E-04    0.19448240E-01
   42   -0.27744206E+03   -0.95375013E-05    0.18811950E-01
   43   -0.27744208E+03   -0.11853532E-04    0.16923895E-01
   44   -0.27744211E+03   -0.38080601E-04    0.14522207E-01
   45   -0.27744216E+03   -0.41625203E-04    0.11961875E-01
   46   -0.27744219E+03   -0.36684743E-04    0.95057556E-02
   47   -0.27744222E+03   -0.29263451E-04    0.74708291E-02
   48   -0.27744224E+03   -0.20450061E-04    0.59317390E-02
   49   -0.27744226E+03   -0.12798372E-04    0.47913634E-02
   50   -0.27744226E+03   -0.77872409E-05    0.39007500E-02
   51   -0.27744227E+03   -0.50142343E-05    0.31448732E-02
   52   -0.27744227E+03   -0.34809376E-05    0.23969368E-02
   53   -0.27744227E+03   -0.27450123E-05    0.16059450E-02
   54   -0.27744228E+03   -0.21689450E-05    0.74620004E-03
   55   -0.27744228E+03   -0.15126436E-05    0.28788784E-03
   56   -0.27744228E+03   -0.58165324E-06    0.28688372E-03
   57   -0.27744228E+03   -0.43635282E-07    0.27334067E-03
   58   -0.27744228E+03   -0.10537406E-07    0.33629714E-03
   59   -0.27744228E+03    0.27899375E-07    0.36049990E-03
   60   -0.27744228E+03    0.68712325E-09    0.26447838E-03
   61   -0.27744228E+03   -0.40920156E-07    0.15788253E-03
   62   -0.27744228E+03   -0.52614496E-07    0.35604933E-04
   63   -0.27744228E+03   -0.45462969E-07    0.24008520E-04
   64   -0.27744228E+03   -0.14691182E-08    0.10560539E-04
   65   -0.27744228E+03   -0.90284402E-09    0.77600639E-05

Total Energy:                     -277.4422789093 H        -7549.5885 eV
Extrapolated to 0K:               -277.4422789093 H        -7549.5885 eV
Total Mermin free energy:         -277.4422789093 H        -7549.5885 eV
Force related energy:             -277.4422789093 H        -7549.5885 eV

Volume:                              0.145734E+05 au^3   0.215955E+04 A^3
Pressure:                           -0.344872E-04 au    -0.101465E+10 Pa
Maximal force component:             0.578313E-01
Averaged force norm:                 0.228202E-01
Maximal Lattice force component:     0.224512E-01 au
Averaged lattice force norm:         0.224512E-01 au
>> Charges saved for restart in charges.bin

--------------------------------------------------------------------------------

***  Geometry step: 1, Lattice step: 0

 iSCC Total electronic   Diff electronic      SCC error    
    1   -0.27744228E+03    0.00000000E+00    0.17430482E+00
    2   -0.27734479E+03    0.97486216E-01    0.44354248E-01
    3   -0.27740739E+03   -0.62595133E-01    0.27658891E-01
    4   -0.27741322E+03   -0.58346381E-02    0.15643391E-01
    5   -0.27741404E+03   -0.81745660E-03    0.10129932E-01
    6   -0.27741403E+03    0.11320149E-04    0.68167428E-02
    7   -0.27741403E+03    0.35276220E-05    0.19222013E-02
    8   -0.27741409E+03   -0.60551646E-04    0.11662975E-02
    9   -0.27741409E+03   -0.20177533E-05    0.11268375E-03
   10   -0.27741409E+03   -0.16529218E-05    0.70001425E-04
   11   -0.27741409E+03   -0.50844164E-08    0.82920365E-05

Total Energy:                     -277.4140893068 H        -7548.8214 eV
Extrapolated to 0K:               -277.4140893068 H        -7548.8214 eV
Total Mermin free energy:         -277.4140893068 H        -7548.8214 eV
Force related energy:             -277.4140893068 H        -7548.8214 eV

Volume:                              0.145734E+05 au^3   0.215955E+04 A^3
Pressure:                            0.921427E-04 au     0.271093E+10 Pa
Maximal force component:             0.748182E-01
Averaged force norm:                 0.423515E-01
Maximal Lattice force component:     0.599854E-01 au
Averaged lattice force norm:         0.599854E-01 au
>> Charges saved for restart in charges.bin

--------------------------------------------------------------------------------

***  Geometry step: 2, Lattice step: 0

 iSCC Total electronic   Diff electronic      SCC error    
    1   -0.27741409E+03    0.00000000E+00    0.10081216E+00
    2   -0.27746476E+03   -0.50668826E-01    0.20025192E-01
    3   -0.27748767E+03   -0.22908308E-01    0.15889428E-01
    4   -0.27748919E+03   -0.15261378E-02    0.10036564E-01
    5   -0.27748959E+03   -0.40213163E-03    0.53777888E-02
    6   -0.27748959E+03    0.14615507E-05    0.79992093E-03
    7   -0.27748961E+03   -0.19383545E-04    0.70802331E-03
    8   -0.27748961E+03   -0.85759234E-06    0.11053974E-03
    9   -0.27748961E+03   -0.40863478E-06    0.62514435E-04
   10   -0.27748961E+03   -0.12384987E-07    0.50871925E-04
   11   -0.27748961E+03   -0.14471198E-08    0.23233349E-05

Total Energy:                     -277.4896139159 H        -7550.8766 eV
Extrapolated to 0K:               -277.4896139159 H        -7550.8766 eV
Total Mermin free energy:         -277.4896139159 H        -7550.8766 eV
Force related energy:             -277.4896139159 H        -7550.8766 eV

Volume:                              0.145734E+05 au^3   0.215955E+04 A^3
Pressure:                            0.131957E-04 au     0.388232E+09 Pa
Maximal force component:             0.261129E-01
Averaged force norm:                 0.114390E-01
Maximal Lattice force component:     0.859053E-02 au
Averaged lattice force norm:         0.859053E-02 au
>> Charges saved for restart in charges.bin

--------------------------------------------------------------------------------

***  Geometry step: 3, Lattice step: 0

 iSCC Total electronic   Diff electronic      SCC error    
    1   -0.27748961E+03    0.00000000E+00    0.54447822E-01
    2   -0.27749717E+03   -0.75574798E-02    0.95747047E-02
    3   -0.27750313E+03   -0.59574998E-02    0.65677284E-02
    4   -0.27750333E+03   -0.19683080E-03    0.47347975E-02
    5   -0.27750339E+03   -0.68579642E-04    0.11636338E-02
    6   -0.27750340E+03   -0.44710939E-05    0.30678163E-03
    7   -0.27750340E+03   -0.12032629E-05    0.20579497E-03
    8   -0.27750340E+03   -0.11993581E-06    0.95490362E-04
    9   -0.27750340E+03   -0.16336514E-07    0.13067539E-04
   10   -0.27750340E+03   -0.29647254E-08    0.36199605E-05

Total Energy:                     -277.5034001197 H        -7551.2517 eV
Extrapolated to 0K:               -277.5034001197 H        -7551.2517 eV
Total Mermin free energy:         -277.5034001197 H        -7551.2517 eV
Force related energy:             -277.5034001197 H        -7551.2517 eV

Volume:                              0.145734E+05 au^3   0.215955E+04 A^3
Pressure:                            0.359436E-05 au     0.105750E+09 Pa
Maximal force component:             0.103308E-01
Averaged force norm:                 0.609548E-02
Maximal Lattice force component:     0.234011E-02 au
Averaged lattice force norm:         0.234003E-02 au
>> Charges saved for restart in charges.bin

--------------------------------------------------------------------------------

***  Geometry step: 4, Lattice step: 0

 iSCC Total electronic   Diff electronic      SCC error    
    1   -0.27750340E+03    0.00000000E+00    0.84924689E-02
    2   -0.27750404E+03   -0.63543731E-03    0.18820641E-02
    3   -0.27750419E+03   -0.15220102E-03    0.11549142E-02
    4   -0.27750419E+03   -0.47113741E-05    0.82085584E-03
    5   -0.27750419E+03   -0.18369680E-05    0.18626629E-03
    6   -0.27750419E+03   -0.13059798E-06    0.57974445E-04
    7   -0.27750419E+03   -0.33917786E-07    0.31187940E-04
    8   -0.27750419E+03   -0.36437768E-08    0.15324322E-04
    9   -0.27750419E+03   -0.19832669E-09    0.22120521E-05

Total Energy:                     -277.5041944748 H        -7551.2733 eV
Extrapolated to 0K:               -277.5041944748 H        -7551.2733 eV
Total Mermin free energy:         -277.5041944748 H        -7551.2733 eV
Force related energy:             -277.5041944748 H        -7551.2733 eV

Volume:                              0.145734E+05 au^3   0.215955E+04 A^3
Pressure:                            0.600557E-05 au     0.176690E+09 Pa
Maximal force component:             0.694065E-02
Averaged force norm:                 0.442948E-02
Maximal Lattice force component:     0.390979E-02 au
Averaged lattice force norm:         0.390973E-02 au
>> Charges saved for restart in charges.bin

--------------------------------------------------------------------------------

***  Geometry step: 5, Lattice step: 0

 iSCC Total electronic   Diff electronic      SCC error    
    1   -0.27750419E+03    0.00000000E+00    0.19425036E-01
    2   -0.27750490E+03   -0.70134589E-03    0.97741027E-02
    3   -0.27750643E+03   -0.15317465E-02    0.70081900E-02
    4   -0.27750660E+03   -0.17461455E-03    0.42803407E-02
    5   -0.27750663E+03   -0.31384134E-04    0.18243966E-02
    6   -0.27750663E+03    0.20883302E-05    0.24293193E-03
    7   -0.27750663E+03   -0.34789618E-05    0.12908618E-03
    8   -0.27750664E+03   -0.68453630E-07    0.42067528E-04
    9   -0.27750664E+03   -0.81285521E-08    0.11645527E-04
   10   -0.27750664E+03   -0.63283778E-09    0.80336639E-06

Total Energy:                     -277.5066350337 H        -7551.3397 eV
Extrapolated to 0K:               -277.5066350337 H        -7551.3397 eV
Total Mermin free energy:         -277.5066350337 H        -7551.3397 eV
Force related energy:             -277.5066350337 H        -7551.3397 eV

Volume:                              0.145734E+05 au^3   0.215955E+04 A^3
Pressure:                            0.288413E-04 au     0.848540E+09 Pa
Maximal force component:             0.112709E-01
Averaged force norm:                 0.735631E-02
Maximal Lattice force component:     0.187753E-01 au
Averaged lattice force norm:         0.187755E-01 au
>> Charges saved for restart in charges.bin

--------------------------------------------------------------------------------

***  Geometry step: 6, Lattice step: 0

 iSCC Total electronic   Diff electronic      SCC error    
    1   -0.27750664E+03    0.00000000E+00    0.75727470E-02
    2   -0.27750764E+03   -0.10038743E-02    0.36563583E-02
    3   -0.27750787E+03   -0.22839884E-03    0.26711826E-02
    4   -0.27750789E+03   -0.24371255E-04    0.16668672E-02
    5   -0.27750790E+03   -0.47194623E-05    0.71029681E-03
    6   -0.27750790E+03    0.29271996E-06    0.95841389E-04
    7   -0.27750790E+03   -0.50478246E-06    0.45291854E-04
    8   -0.27750790E+03   -0.99329327E-08    0.16134847E-04
    9   -0.27750790E+03   -0.78284756E-09    0.42300555E-05

Total Energy:                     -277.5078966204 H        -7551.3741 eV
Extrapolated to 0K:               -277.5078966204 H        -7551.3741 eV
Total Mermin free energy:         -277.5078966204 H        -7551.3741 eV
Force related energy:             -277.5078966204 H        -7551.3741 eV

Volume:                              0.145734E+05 au^3   0.215955E+04 A^3
Pressure:                            0.195810E-04 au     0.576091E+09 Pa
Maximal force component:             0.636483E-02
Averaged force norm:                 0.419994E-02
Maximal Lattice force component:     0.127470E-01 au
Averaged lattice force norm:         0.127471E-01 au
>> Charges saved for restart in charges.bin

--------------------------------------------------------------------------------

***  Geometry step: 7, Lattice step: 0

 iSCC Total electronic   Diff electronic      SCC error    
    1   -0.27750790E+03    0.00000000E+00    0.42170079E-02
    2   -0.27751111E+03   -0.32116817E-02    0.27257038E-02
    3   -0.27751114E+03   -0.27911635E-04    0.16388898E-02
    4   -0.27751114E+03   -0.56631982E-05    0.37877776E-03
    5   -0.27751114E+03   -0.71005957E-07    0.14214237E-03
    6   -0.27751114E+03   -0.14756586E-06    0.37154107E-04
    7   -0.27751114E+03   -0.16738511E-07    0.16873197E-05

Total Energy:                     -277.5111421148 H        -7551.4624 eV
Extrapolated to 0K:               -277.5111421148 H        -7551.4624 eV
Total Mermin free energy:         -277.5111421148 H        -7551.4624 eV
Force related energy:             -277.5111421148 H        -7551.4624 eV

Volume:                              0.145734E+05 au^3   0.215955E+04 A^3
Pressure:                            0.154629E-04 au     0.454933E+09 Pa
Maximal force component:             0.623420E-02
Averaged force norm:                 0.334379E-02
Maximal Lattice force component:     0.100665E-01 au
Averaged lattice force norm:         0.100664E-01 au
>> Charges saved for restart in charges.bin

--------------------------------------------------------------------------------

***  Geometry step: 8, Lattice step: 0

 iSCC Total electronic   Diff electronic      SCC error    
    1   -0.27751114E+03    0.00000000E+00    0.70591880E-02
    2   -0.27750538E+03    0.57636900E-02    0.46503210E-02
    3   -0.27750546E+03   -0.83244784E-04    0.28185364E-02
    4   -0.27750548E+03   -0.15980293E-04    0.73416789E-03
    5   -0.27750548E+03   -0.20713219E-06    0.24493079E-03
    6   -0.27750548E+03   -0.39101434E-06    0.61663329E-04
    7   -0.27750548E+03   -0.62200456E-07    0.30921341E-05

Total Energy:                     -277.5054783170 H        -7551.3083 eV
Extrapolated to 0K:               -277.5054783170 H        -7551.3083 eV
Total Mermin free energy:         -277.5054783170 H        -7551.3083 eV
Force related energy:             -277.5054783170 H        -7551.3083 eV

Volume:                              0.145734E+05 au^3   0.215955E+04 A^3
Pressure:                            0.100142E-04 au     0.294629E+09 Pa
Maximal force component:             0.164750E-01
Averaged force norm:                 0.107622E-01
Maximal Lattice force component:     0.652003E-02 au
Averaged lattice force norm:         0.651966E-02 au
>> Charges saved for restart in charges.bin

--------------------------------------------------------------------------------

***  Geometry step: 9, Lattice step: 0

 iSCC Total electronic   Diff electronic      SCC error    
    1   -0.27750548E+03    0.00000000E+00    0.65012149E-02
    2   -0.27751110E+03   -0.56260213E-02    0.42852596E-02
    3   -0.27751117E+03   -0.68993045E-04    0.25655822E-02
    4   -0.27751119E+03   -0.13499775E-04    0.65542526E-03
    5   -0.27751119E+03   -0.19682346E-06    0.22295332E-03
    6   -0.27751119E+03   -0.31723147E-06    0.55695731E-04
    7   -0.27751119E+03   -0.52577434E-07    0.26328477E-05

Total Energy:                     -277.5111874032 H        -7551.4636 eV
Extrapolated to 0K:               -277.5111874032 H        -7551.4636 eV
Total Mermin free energy:         -277.5111874032 H        -7551.4636 eV
Force related energy:             -277.5111874032 H        -7551.4636 eV

Volume:                              0.145734E+05 au^3   0.215955E+04 A^3
Pressure:                            0.149616E-04 au     0.440184E+09 Pa
Maximal force component:             0.707251E-02
Averaged force norm:                 0.379029E-02
Maximal Lattice force component:     0.974021E-02 au
Averaged lattice force norm:         0.974009E-02 au
>> Charges saved for restart in charges.bin

--------------------------------------------------------------------------------

***  Geometry step: 10, Lattice step: 0

 iSCC Total electronic   Diff electronic      SCC error    
    1   -0.27751119E+03    0.00000000E+00    0.10216283E-01
    2   -0.27751251E+03   -0.13180105E-02    0.35502206E-02
    3   -0.27751268E+03   -0.17877595E-03    0.29274787E-02
    4   -0.27751272E+03   -0.37378211E-04    0.19780720E-02
    5   -0.27751272E+03   -0.33231075E-05    0.40651963E-03
    6   -0.27751273E+03   -0.52739585E-06    0.11559371E-03
    7   -0.27751273E+03   -0.17808827E-06    0.28331276E-04
    8   -0.27751273E+03   -0.16731917E-07    0.15506114E-04
    9   -0.27751273E+03   -0.80456175E-09    0.48982370E-05

Total Energy:                     -277.5127256143 H        -7551.5055 eV
Extrapolated to 0K:               -277.5127256143 H        -7551.5055 eV
Total Mermin free energy:         -277.5127256143 H        -7551.5055 eV
Force related energy:             -277.5127256143 H        -7551.5055 eV

Volume:                              0.145734E+05 au^3   0.215955E+04 A^3
Pressure:                            0.143479E-04 au     0.422131E+09 Pa
Maximal force component:             0.545313E-02
Averaged force norm:                 0.303154E-02
Maximal Lattice force component:     0.934015E-02 au
Averaged lattice force norm:         0.934033E-02 au
>> Charges saved for restart in charges.bin

--------------------------------------------------------------------------------

***  Geometry step: 11, Lattice step: 0

 iSCC Total electronic   Diff electronic      SCC error    
    1   -0.27751273E+03    0.00000000E+00    0.27388858E-02
    2   -0.27751295E+03   -0.22538558E-03    0.94927838E-03
    3   -0.27751296E+03   -0.12821798E-04    0.78284139E-03
    4   -0.27751297E+03   -0.26812251E-05    0.52894815E-03
    5   -0.27751297E+03   -0.23296508E-06    0.10878791E-03
    6   -0.27751297E+03   -0.37725044E-07    0.29885958E-04
    7   -0.27751297E+03   -0.12718942E-07    0.77937857E-05

Total Energy:                     -277.5129667875 H        -7551.5120 eV
Extrapolated to 0K:               -277.5129667875 H        -7551.5120 eV
Total Mermin free energy:         -277.5129667875 H        -7551.5120 eV
Force related energy:             -277.5129667875 H        -7551.5120 eV

Volume:                              0.145734E+05 au^3   0.215955E+04 A^3
Pressure:                            0.144027E-04 au     0.423740E+09 Pa
Maximal force component:             0.378595E-02
Averaged force norm:                 0.202634E-02
Maximal Lattice force component:     0.937591E-02 au
Averaged lattice force norm:         0.937602E-02 au
>> Charges saved for restart in charges.bin

--------------------------------------------------------------------------------

***  Geometry step: 12, Lattice step: 0

 iSCC Total electronic   Diff electronic      SCC error    
    1   -0.27751297E+03    0.00000000E+00    0.57950825E-02
    2   -0.27751166E+03    0.13029590E-02    0.33561143E-02
    3   -0.27751180E+03   -0.13620124E-03    0.20444765E-02
    4   -0.27751184E+03   -0.35282651E-04    0.13413005E-02
    5   -0.27751184E+03   -0.20120822E-05    0.39338986E-03
    6   -0.27751184E+03   -0.15054212E-06    0.10922350E-03
    7   -0.27751184E+03   -0.15481749E-06    0.25485944E-04
    8   -0.27751184E+03   -0.24858139E-07    0.98142606E-05

Total Energy:                     -277.5118376553 H        -7551.4813 eV
Extrapolated to 0K:               -277.5118376553 H        -7551.4813 eV
Total Mermin free energy:         -277.5118376553 H        -7551.4813 eV
Force related energy:             -277.5118376553 H        -7551.4813 eV

Volume:                              0.145734E+05 au^3   0.215955E+04 A^3
Pressure:                            0.173630E-04 au     0.510838E+09 Pa
Maximal force component:             0.104887E-01
Averaged force norm:                 0.598969E-02
Maximal Lattice force component:     0.113037E-01 au
Averaged lattice force norm:         0.113034E-01 au
>> Charges saved for restart in charges.bin

--------------------------------------------------------------------------------

***  Geometry step: 13, Lattice step: 0

 iSCC Total electronic   Diff electronic      SCC error    
    1   -0.27751184E+03    0.00000000E+00    0.37817497E-02
    2   -0.27751333E+03   -0.14923249E-02    0.22073171E-02
    3   -0.27751339E+03   -0.58068435E-04    0.13409453E-02
    4   -0.27751340E+03   -0.15195422E-04    0.86795864E-03
    5   -0.27751340E+03   -0.84443252E-06    0.25405562E-03
    6   -0.27751340E+03   -0.65616575E-07    0.71198484E-04
    7   -0.27751340E+03   -0.63841640E-07    0.17436320E-04
    8   -0.27751340E+03   -0.10635404E-07    0.43713945E-05

Total Energy:                     -277.5134042288 H        -7551.5239 eV
Extrapolated to 0K:               -277.5134042288 H        -7551.5239 eV
Total Mermin free energy:         -277.5134042288 H        -7551.5239 eV
Force related energy:             -277.5134042288 H        -7551.5239 eV

Volume:                              0.145734E+05 au^3   0.215955E+04 A^3
Pressure:                            0.153477E-04 au     0.451545E+09 Pa
Maximal force component:             0.330809E-02
Averaged force norm:                 0.157061E-02
Maximal Lattice force component:     0.999135E-02 au
Averaged lattice force norm:         0.999132E-02 au
>> Charges saved for restart in charges.bin

--------------------------------------------------------------------------------

***  Geometry step: 14, Lattice step: 0

 iSCC Total electronic   Diff electronic      SCC error    
    1   -0.27751340E+03    0.00000000E+00    0.23977552E-02
    2   -0.27751386E+03   -0.46066920E-03    0.96339403E-03
    3   -0.27751387E+03   -0.62936994E-05    0.35158428E-03
    4   -0.27751387E+03   -0.12679661E-05    0.17199774E-03
    5   -0.27751387E+03   -0.33480148E-07    0.75659361E-04
    6   -0.27751387E+03   -0.82565634E-08    0.33009111E-04
    7   -0.27751387E+03   -0.13610077E-07    0.89782253E-05

Total Energy:                     -277.5138725155 H        -7551.5367 eV
Extrapolated to 0K:               -277.5138725155 H        -7551.5367 eV
Total Mermin free energy:         -277.5138725155 H        -7551.5367 eV
Force related energy:             -277.5138725155 H        -7551.5367 eV

Volume:                              0.145734E+05 au^3   0.215955E+04 A^3
Pressure:                            0.125796E-04 au     0.370104E+09 Pa
Maximal force component:             0.281105E-02
Averaged force norm:                 0.117653E-02
Maximal Lattice force component:     0.818936E-02 au
Averaged lattice force norm:         0.818934E-02 au
>> Charges saved for restart in charges.bin

--------------------------------------------------------------------------------

***  Geometry step: 15, Lattice step: 0

 iSCC Total electronic   Diff electronic      SCC error    
    1   -0.27751387E+03    0.00000000E+00    0.38684052E-02
    2   -0.27751390E+03   -0.26687997E-04    0.15567910E-02
    3   -0.27751392E+03   -0.16395432E-04    0.56599525E-03
    4   -0.27751392E+03   -0.32870598E-05    0.27961410E-03
    5   -0.27751392E+03   -0.87996625E-07    0.12380772E-03
    6   -0.27751392E+03   -0.21014898E-07    0.53484780E-04
    7   -0.27751392E+03   -0.36451581E-07    0.14730115E-04
    8   -0.27751392E+03   -0.10746248E-08    0.27921337E-05

Total Energy:                     -277.5139190326 H        -7551.5380 eV
Extrapolated to 0K:               -277.5139190326 H        -7551.5380 eV
Total Mermin free energy:         -277.5139190326 H        -7551.5380 eV
Force related energy:             -277.5139190326 H        -7551.5380 eV

Volume:                              0.145734E+05 au^3   0.215955E+04 A^3
Pressure:                            0.818894E-05 au     0.240927E+09 Pa
Maximal force component:             0.425222E-02
Averaged force norm:                 0.247742E-02
Maximal Lattice force component:     0.533114E-02 au
Averaged lattice force norm:         0.533114E-02 au
>> Charges saved for restart in charges.bin

--------------------------------------------------------------------------------

***  Geometry step: 16, Lattice step: 0

 iSCC Total electronic   Diff electronic      SCC error    
    1   -0.27751392E+03    0.00000000E+00    0.17164883E-02
    2   -0.27751400E+03   -0.83713499E-04    0.69809115E-03
    3   -0.27751401E+03   -0.32383408E-05    0.25517080E-03
    4   -0.27751401E+03   -0.65633071E-06    0.12369188E-03
    5   -0.27751401E+03   -0.16815306E-07    0.54583466E-04
    6   -0.27751401E+03   -0.44871626E-08    0.24196787E-04
    7   -0.27751401E+03   -0.71430009E-08    0.63515672E-05

Total Energy:                     -277.5140066694 H        -7551.5403 eV
Extrapolated to 0K:               -277.5140066694 H        -7551.5403 eV
Total Mermin free energy:         -277.5140066694 H        -7551.5403 eV
Force related energy:             -277.5140066694 H        -7551.5403 eV

Volume:                              0.145734E+05 au^3   0.215955E+04 A^3
Pressure:                            0.101384E-04 au     0.298281E+09 Pa
Maximal force component:             0.289010E-02
Averaged force norm:                 0.174249E-02
Maximal Lattice force component:     0.660017E-02 au
Averaged lattice force norm:         0.660016E-02 au
>> Charges saved for restart in charges.bin

--------------------------------------------------------------------------------

***  Geometry step: 17, Lattice step: 0

 iSCC Total electronic   Diff electronic      SCC error    
    1   -0.27751401E+03    0.00000000E+00    0.30717852E-02
    2   -0.27751473E+03   -0.72480686E-03    0.24115426E-02
    3   -0.27751475E+03   -0.19475790E-04    0.14866754E-02
    4   -0.27751475E+03   -0.38903231E-05    0.27617671E-03
    5   -0.27751476E+03   -0.25266939E-06    0.14816838E-03
    6   -0.27751476E+03   -0.51359336E-07    0.10678162E-03
    7   -0.27751476E+03   -0.45585409E-07    0.12679959E-04
    8   -0.27751476E+03   -0.30020715E-08    0.95091829E-06

Total Energy:                     -277.5147551953 H        -7551.5607 eV
Extrapolated to 0K:               -277.5147551953 H        -7551.5607 eV
Total Mermin free energy:         -277.5147551953 H        -7551.5607 eV
Force related energy:             -277.5147551953 H        -7551.5607 eV

Volume:                              0.145734E+05 au^3   0.215955E+04 A^3
Pressure:                            0.137801E-04 au     0.405423E+09 Pa
Maximal force component:             0.276173E-02
Averaged force norm:                 0.165428E-02
Maximal Lattice force component:     0.897061E-02 au
Averaged lattice force norm:         0.897062E-02 au
>> Charges saved for restart in charges.bin

--------------------------------------------------------------------------------

***  Geometry step: 18, Lattice step: 0

 iSCC Total electronic   Diff electronic      SCC error    
    1   -0.27751476E+03    0.00000000E+00    0.51293135E-02
    2   -0.27751475E+03    0.93821126E-05    0.39976644E-02
    3   -0.27751480E+03   -0.50702429E-04    0.24666651E-02
    4   -0.27751481E+03   -0.99944654E-05    0.50524923E-03
    5   -0.27751481E+03   -0.71421891E-06    0.24996562E-03
    6   -0.27751481E+03   -0.96263079E-07    0.17626019E-03
    7   -0.27751481E+03   -0.11589162E-06    0.20453021E-04
    8   -0.27751481E+03   -0.76537958E-08    0.24030269E-05

Total Energy:                     -277.5148074447 H        -7551.5621 eV
Extrapolated to 0K:               -277.5148074447 H        -7551.5621 eV
Total Mermin free energy:         -277.5148074447 H        -7551.5621 eV
Force related energy:             -277.5148074447 H        -7551.5621 eV

Volume:                              0.145734E+05 au^3   0.215955E+04 A^3
Pressure:                            0.201184E-04 au     0.591902E+09 Pa
Maximal force component:             0.618930E-02
Averaged force norm:                 0.375602E-02
Maximal Lattice force component:     0.130963E-01 au
Averaged lattice force norm:         0.130964E-01 au
>> Charges saved for restart in charges.bin

--------------------------------------------------------------------------------

***  Geometry step: 19, Lattice step: 0

 iSCC Total electronic   Diff electronic      SCC error    
    1   -0.27751481E+03    0.00000000E+00    0.24474756E-02
    2   -0.27751495E+03   -0.14564306E-03    0.18998731E-02
    3   -0.27751496E+03   -0.11417805E-04    0.11823534E-02
    4   -0.27751497E+03   -0.21946162E-05    0.25908365E-03
    5   -0.27751497E+03   -0.16856347E-06    0.11817578E-03
    6   -0.27751497E+03   -0.18478374E-07    0.83997550E-04
    7   -0.27751497E+03   -0.25395025E-07    0.97057341E-05

Total Energy:                     -277.5149669144 H        -7551.5665 eV
Extrapolated to 0K:               -277.5149669144 H        -7551.5665 eV
Total Mermin free energy:         -277.5149669144 H        -7551.5665 eV
Force related energy:             -277.5149669144 H        -7551.5665 eV

Volume:                              0.145734E+05 au^3   0.215955E+04 A^3
Pressure:                            0.170557E-04 au     0.501796E+09 Pa
Maximal force component:             0.456700E-02
Averaged force norm:                 0.262486E-02
Maximal Lattice force component:     0.111028E-01 au
Averaged lattice force norm:         0.111028E-01 au
>> Charges saved for restart in charges.bin

--------------------------------------------------------------------------------

***  Geometry step: 20, Lattice step: 0

 iSCC Total electronic   Diff electronic      SCC error    
    1   -0.27751497E+03    0.00000000E+00    0.81364249E-02
    2   -0.27751612E+03   -0.11500748E-02    0.60610115E-02
    3   -0.27751621E+03   -0.89266889E-04    0.45079027E-02
    4   -0.27751622E+03   -0.12385695E-04    0.11468144E-02
    5   -0.27751622E+03   -0.49538367E-05    0.18730440E-03
    6   -0.27751622E+03   -0.72293818E-06    0.95426398E-04
    7   -0.27751622E+03   -0.59531658E-07    0.39449125E-04
    8   -0.27751622E+03   -0.35309995E-08    0.14959686E-04
    9   -0.27751622E+03   -0.19360868E-09    0.28218818E-05

Total Energy:                     -277.5162243820 H        -7551.6007 eV
Extrapolated to 0K:               -277.5162243820 H        -7551.6007 eV
Total Mermin free energy:         -277.5162243820 H        -7551.6007 eV
Force related energy:             -277.5162243820 H        -7551.6007 eV

Volume:                              0.145734E+05 au^3   0.215955E+04 A^3
Pressure:                            0.180185E-04 au     0.530122E+09 Pa
Maximal force component:             0.428380E-02
Averaged force norm:                 0.186270E-02
Maximal Lattice force component:     0.117307E-01 au
Averaged lattice force norm:         0.117306E-01 au
>> Charges saved for restart in charges.bin

--------------------------------------------------------------------------------

***  Geometry step: 21, Lattice step: 0

 iSCC Total electronic   Diff electronic      SCC error    
    1   -0.27751622E+03    0.00000000E+00    0.13186009E-01
    2   -0.27751503E+03    0.11922719E-02    0.98214415E-02
    3   -0.27751527E+03   -0.23848665E-03    0.73302940E-02
    4   -0.27751530E+03   -0.30733136E-04    0.17758409E-02
    5   -0.27751531E+03   -0.12587381E-04    0.31369623E-03
    6   -0.27751532E+03   -0.19584395E-05    0.16197298E-03
    7   -0.27751532E+03   -0.14917663E-06    0.68305243E-04
    8   -0.27751532E+03   -0.94174766E-08    0.24759641E-04
    9   -0.27751532E+03   -0.65864469E-09    0.46691737E-05

Total Energy:                     -277.5153160354 H        -7551.5760 eV
Extrapolated to 0K:               -277.5153160354 H        -7551.5760 eV
Total Mermin free energy:         -277.5153160354 H        -7551.5760 eV
Force related energy:             -277.5153160354 H        -7551.5760 eV

Volume:                              0.145734E+05 au^3   0.215955E+04 A^3
Pressure:                            0.221241E-04 au     0.650912E+09 Pa
Maximal force component:             0.804386E-02
Averaged force norm:                 0.405856E-02
Maximal Lattice force component:     0.144050E-01 au
Averaged lattice force norm:         0.144049E-01 au
>> Charges saved for restart in charges.bin

--------------------------------------------------------------------------------

***  Geometry step: 22, Lattice step: 0

 iSCC Total electronic   Diff electronic      SCC error    
    1   -0.27751532E+03    0.00000000E+00    0.99211408E-02
    2   -0.27751621E+03   -0.89119675E-03    0.73388205E-02
    3   -0.27751635E+03   -0.14325072E-03    0.55229334E-02
    4   -0.27751637E+03   -0.16906758E-04    0.13155232E-02
    5   -0.27751637E+03   -0.74655488E-05    0.23514051E-03
    6   -0.27751638E+03   -0.11079363E-05    0.11454376E-03
    7   -0.27751638E+03   -0.82608722E-07    0.54437380E-04
    8   -0.27751638E+03   -0.53435656E-08    0.19817950E-04
    9   -0.27751638E+03   -0.36953907E-09    0.37432301E-05

Total Energy:                     -277.5163760517 H        -7551.6048 eV
Extrapolated to 0K:               -277.5163760517 H        -7551.6048 eV
Total Mermin free energy:         -277.5163760517 H        -7551.6048 eV
Force related energy:             -277.5163760517 H        -7551.6048 eV

Volume:                              0.145734E+05 au^3   0.215955E+04 A^3
Pressure:                            0.187424E-04 au     0.551419E+09 Pa
Maximal force component:             0.475428E-02
Averaged force norm:                 0.211124E-02
Maximal Lattice force component:     0.122024E-01 au
Averaged lattice force norm:         0.122023E-01 au
>> Charges saved for restart in charges.bin

--------------------------------------------------------------------------------

***  Geometry step: 23, Lattice step: 0

 iSCC Total electronic   Diff electronic      SCC error    
    1   -0.27751638E+03    0.00000000E+00    0.19315330E-01
    2   -0.27751625E+03    0.12806130E-03    0.87068335E-02
    3   -0.27751682E+03   -0.56785182E-03    0.66934586E-02
    4   -0.27751683E+03   -0.17998590E-04    0.19028947E-02
    5   -0.27751684E+03   -0.77895527E-05    0.58411637E-03
    6   -0.27751684E+03   -0.15784005E-05    0.22615318E-03
    7   -0.27751684E+03   -0.20499391E-06    0.74477460E-04
    8   -0.27751684E+03   -0.97741690E-08    0.22728361E-04
    9   -0.27751684E+03   -0.27270630E-08    0.24457447E-05

Total Energy:                     -277.5168434270 H        -7551.6175 eV
Extrapolated to 0K:               -277.5168434270 H        -7551.6175 eV
Total Mermin free energy:         -277.5168434270 H        -7551.6175 eV
Force related energy:             -277.5168434270 H        -7551.6175 eV

Volume:                              0.145734E+05 au^3   0.215955E+04 A^3
Pressure:                            0.242459E-04 au     0.713338E+09 Pa
Maximal force component:             0.648131E-02
Averaged force norm:                 0.378176E-02
Maximal Lattice force component:     0.157779E-01 au
Averaged lattice force norm:         0.157794E-01 au
>> Charges saved for restart in charges.bin

--------------------------------------------------------------------------------

***  Geometry step: 24, Lattice step: 0

 iSCC Total electronic   Diff electronic      SCC error    
    1   -0.27751684E+03    0.00000000E+00    0.84361903E-02
    2   -0.27751724E+03   -0.39266906E-03    0.37387708E-02
    3   -0.27751735E+03   -0.10952252E-03    0.28909571E-02
    4   -0.27751735E+03   -0.31831025E-05    0.84359270E-03
    5   -0.27751735E+03   -0.14594407E-05    0.25762807E-03
    6   -0.27751735E+03   -0.28542092E-06    0.97557664E-04
    7   -0.27751735E+03   -0.39035569E-07    0.31002577E-04
    8   -0.27751735E+03   -0.18587230E-08    0.84055673E-05

Total Energy:                     -277.5173505879 H        -7551.6313 eV
Extrapolated to 0K:               -277.5173505879 H        -7551.6313 eV
Total Mermin free energy:         -277.5173505879 H        -7551.6313 eV
Force related energy:             -277.5173505879 H        -7551.6313 eV

Volume:                              0.145734E+05 au^3   0.215955E+04 A^3
Pressure:                            0.215283E-04 au     0.633384E+09 Pa
Maximal force component:             0.437564E-02
Averaged force norm:                 0.203094E-02
Maximal Lattice force component:     0.140119E-01 au
Averaged lattice force norm:         0.140125E-01 au
>> Charges saved for restart in charges.bin

--------------------------------------------------------------------------------

***  Geometry step: 25, Lattice step: 0

 iSCC Total electronic   Diff electronic      SCC error    
    1   -0.27751735E+03    0.00000000E+00    0.13025298E-01
    2   -0.27751761E+03   -0.26096717E-03    0.49171203E-02
    3   -0.27751788E+03   -0.26998430E-03    0.36863729E-02
    4   -0.27751789E+03   -0.39420569E-05    0.61439868E-03
    5   -0.27751789E+03   -0.18748353E-05    0.11665834E-03
    6   -0.27751789E+03   -0.35168301E-06    0.10218149E-03
    7   -0.27751789E+03   -0.33102253E-07    0.35663223E-04
    8   -0.27751789E+03   -0.17981847E-08    0.98535452E-05

Total Energy:                     -277.5178877439 H        -7551.6459 eV
Extrapolated to 0K:               -277.5178877439 H        -7551.6459 eV
Total Mermin free energy:         -277.5178877439 H        -7551.6459 eV
Force related energy:             -277.5178877439 H        -7551.6459 eV

Volume:                              0.145734E+05 au^3   0.215955E+04 A^3
Pressure:                            0.166502E-04 au     0.489865E+09 Pa
Maximal force component:             0.521043E-02
Averaged force norm:                 0.286814E-02
Maximal Lattice force component:     0.108479E-01 au
Averaged lattice force norm:         0.108502E-01 au
>> Charges saved for restart in charges.bin

--------------------------------------------------------------------------------

***  Geometry step: 26, Lattice step: 0

 iSCC Total electronic   Diff electronic      SCC error    
    1   -0.27751789E+03    0.00000000E+00    0.36842328E-02
    2   -0.27751796E+03   -0.73224501E-04    0.13851593E-02
    3   -0.27751798E+03   -0.21740963E-04    0.10412341E-02
    4   -0.27751798E+03   -0.30911281E-06    0.17414784E-03
    5   -0.27751798E+03   -0.14983635E-06    0.33209750E-04
    6   -0.27751798E+03   -0.28180921E-07    0.28938219E-04
    7   -0.27751798E+03   -0.26303155E-08    0.95853329E-05

Total Energy:                     -277.5179831993 H        -7551.6485 eV
Extrapolated to 0K:               -277.5179831993 H        -7551.6485 eV
Total Mermin free energy:         -277.5179831993 H        -7551.6485 eV
Force related energy:             -277.5179831993 H        -7551.6485 eV

Volume:                              0.145734E+05 au^3   0.215955E+04 A^3
Pressure:                            0.179640E-04 au     0.528518E+09 Pa
Maximal force component:             0.328538E-02
Averaged force norm:                 0.197766E-02
Maximal Lattice force component:     0.116999E-01 au
Averaged lattice force norm:         0.117005E-01 au
>> Charges saved for restart in charges.bin

--------------------------------------------------------------------------------

***  Geometry step: 27, Lattice step: 0

 iSCC Total electronic   Diff electronic      SCC error    
    1   -0.27751798E+03    0.00000000E+00    0.81204295E-02
    2   -0.27751848E+03   -0.49213028E-03    0.22744642E-02
    3   -0.27751855E+03   -0.74011185E-04    0.16832274E-02
    4   -0.27751855E+03   -0.23082746E-05    0.51985513E-03
    5   -0.27751855E+03   -0.51825549E-06    0.10917470E-03
    6   -0.27751855E+03   -0.12470696E-06    0.91408349E-04
    7   -0.27751855E+03   -0.19174081E-07    0.33833726E-04
    8   -0.27751855E+03   -0.15465957E-08    0.55824738E-05

Total Energy:                     -277.5185523130 H        -7551.6640 eV
Extrapolated to 0K:               -277.5185523130 H        -7551.6640 eV
Total Mermin free energy:         -277.5185523130 H        -7551.6640 eV
Force related energy:             -277.5185523130 H        -7551.6640 eV

Volume:                              0.145734E+05 au^3   0.215955E+04 A^3
Pressure:                            0.124836E-04 au     0.367280E+09 Pa
Maximal force component:             0.189141E-02
Averaged force norm:                 0.119658E-02
Maximal Lattice force component:     0.812151E-02 au
Averaged lattice force norm:         0.812373E-02 au
>> Charges saved for restart in charges.bin

--------------------------------------------------------------------------------

***  Geometry step: 28, Lattice step: 0

 iSCC Total electronic   Diff electronic      SCC error    
    1   -0.27751855E+03    0.00000000E+00    0.12732422E-01
    2   -0.27751706E+03    0.14896840E-02    0.36551647E-02
    3   -0.27751725E+03   -0.18502746E-03    0.26924668E-02
    4   -0.27751725E+03   -0.60091668E-05    0.81478183E-03
    5   -0.27751726E+03   -0.13361686E-05    0.17763872E-03
    6   -0.27751726E+03   -0.31605043E-06    0.14448876E-03
    7   -0.27751726E+03   -0.51091945E-07    0.56093583E-04
    8   -0.27751726E+03   -0.41273438E-08    0.10777259E-04
    9   -0.27751726E+03   -0.68791906E-09    0.32457720E-05

Total Energy:                     -277.5172553739 H        -7551.6287 eV
Extrapolated to 0K:               -277.5172553739 H        -7551.6287 eV
Total Mermin free energy:         -277.5172553739 H        -7551.6287 eV
Force related energy:             -277.5172553739 H        -7551.6287 eV

Volume:                              0.145734E+05 au^3   0.215955E+04 A^3
Pressure:                            0.392918E-05 au     0.115600E+09 Pa
Maximal force component:             0.731234E-02
Averaged force norm:                 0.410976E-02
Maximal Lattice force component:     0.258425E-02 au
Averaged lattice force norm:         0.262947E-02 au
>> Charges saved for restart in charges.bin

--------------------------------------------------------------------------------

***  Geometry step: 29, Lattice step: 0

 iSCC Total electronic   Diff electronic      SCC error    
    1   -0.27751726E+03    0.00000000E+00    0.12607636E-01
    2   -0.27751836E+03   -0.11073833E-02    0.35618755E-02
    3   -0.27751855E+03   -0.18316412E-03    0.26419038E-02
    4   -0.27751855E+03   -0.55873201E-05    0.81133078E-03
    5   -0.27751855E+03   -0.12966199E-05    0.17221152E-03
    6   -0.27751855E+03   -0.30311855E-06    0.14306851E-03
    7   -0.27751855E+03   -0.48892673E-07    0.53350449E-04
    8   -0.27751855E+03   -0.39705128E-08    0.10566427E-04
    9   -0.27751855E+03   -0.69491080E-09    0.33917482E-05

Total Energy:                     -277.5185531621 H        -7551.6641 eV
Extrapolated to 0K:               -277.5185531621 H        -7551.6641 eV
Total Mermin free energy:         -277.5185531621 H        -7551.6641 eV
Force related energy:             -277.5185531621 H        -7551.6641 eV

Volume:                              0.145734E+05 au^3   0.215955E+04 A^3
Pressure:                            0.122655E-04 au     0.360864E+09 Pa
Maximal force component:             0.192189E-02
Averaged force norm:                 0.123817E-02
Maximal Lattice force component:     0.797908E-02 au
Averaged lattice force norm:         0.798166E-02 au
>> Charges saved for restart in charges.bin

--------------------------------------------------------------------------------

***  Geometry step: 30, Lattice step: 0

 iSCC Total electronic   Diff electronic      SCC error    
    1   -0.27751855E+03    0.00000000E+00    0.89979110E-02
    2   -0.27751805E+03    0.50600781E-03    0.25921780E-02
    3   -0.27751824E+03   -0.19352399E-03    0.11890908E-02
    4   -0.27751827E+03   -0.29288038E-04    0.72857238E-03
    5   -0.27751827E+03   -0.18243664E-05    0.28910891E-03
    6   -0.27751827E+03   -0.12987999E-06    0.89598342E-04
    7   -0.27751827E+03   -0.57574312E-07    0.38511827E-04
    8   -0.27751827E+03   -0.12081614E-07    0.72459363E-05

Total Energy:                     -277.5182719919 H        -7551.6564 eV
Extrapolated to 0K:               -277.5182719919 H        -7551.6564 eV
Total Mermin free energy:         -277.5182719919 H        -7551.6564 eV
Force related energy:             -277.5182719919 H        -7551.6564 eV

Volume:                              0.145734E+05 au^3   0.215955E+04 A^3
Pressure:                            0.104963E-04 au     0.308813E+09 Pa
Maximal force component:             0.901634E-02
Averaged force norm:                 0.345016E-02
Maximal Lattice force component:     0.686488E-02 au
Averaged lattice force norm:         0.692757E-02 au
>> Charges saved for restart in charges.bin

--------------------------------------------------------------------------------

***  Geometry step: 31, Lattice step: 0

 iSCC Total electronic   Diff electronic      SCC error    
    1   -0.27751827E+03    0.00000000E+00    0.55638191E-02
    2   -0.27751865E+03   -0.38010895E-03    0.16105193E-02
    3   -0.27751873E+03   -0.73908077E-04    0.73108016E-03
    4   -0.27751874E+03   -0.11033036E-04    0.44866602E-03
    5   -0.27751874E+03   -0.71028711E-06    0.17949253E-03
    6   -0.27751874E+03   -0.52569249E-07    0.55568452E-04
    7   -0.27751874E+03   -0.21825826E-07    0.23751095E-04
    8   -0.27751874E+03   -0.46143214E-08    0.44938894E-05

Total Energy:                     -277.5187378319 H        -7551.6691 eV
Extrapolated to 0K:               -277.5187378319 H        -7551.6691 eV
Total Mermin free energy:         -277.5187378319 H        -7551.6691 eV
Force related energy:             -277.5187378319 H        -7551.6691 eV

Volume:                              0.145734E+05 au^3   0.215955E+04 A^3
Pressure:                            0.115609E-04 au     0.340134E+09 Pa
Maximal force component:             0.235713E-02
Averaged force norm:                 0.107875E-02
Maximal Lattice force component:     0.753421E-02 au
Averaged lattice force norm:         0.753779E-02 au
>> Charges saved for restart in charges.bin

--------------------------------------------------------------------------------

***  Geometry step: 32, Lattice step: 0

 iSCC Total electronic   Diff electronic      SCC error    
    1   -0.27751874E+03    0.00000000E+00    0.44709815E-02
    2   -0.27751886E+03   -0.12529781E-03    0.15452894E-02
    3   -0.27751889E+03   -0.22572917E-04    0.46647385E-03
    4   -0.27751889E+03   -0.31202629E-05    0.34056261E-03
    5   -0.27751889E+03   -0.15906369E-06    0.17379934E-03
    6   -0.27751889E+03   -0.74329023E-08    0.62818819E-04
    7   -0.27751889E+03   -0.85744318E-08    0.84181520E-05

Total Energy:                     -277.5188890003 H        -7551.6732 eV
Extrapolated to 0K:               -277.5188890003 H        -7551.6732 eV
Total Mermin free energy:         -277.5188890003 H        -7551.6732 eV
Force related energy:             -277.5188890003 H        -7551.6732 eV

Volume:                              0.145734E+05 au^3   0.215955E+04 A^3
Pressure:                            0.916917E-05 au     0.269766E+09 Pa
Maximal force component:             0.216297E-02
Averaged force norm:                 0.726509E-03
Maximal Lattice force component:     0.596318E-02 au
Averaged lattice force norm:         0.596687E-02 au
>> Charges saved for restart in charges.bin

--------------------------------------------------------------------------------

***  Geometry step: 33, Lattice step: 0

 iSCC Total electronic   Diff electronic      SCC error    
    1   -0.27751889E+03    0.00000000E+00    0.72149606E-02
    2   -0.27751844E+03    0.44804060E-03    0.24976649E-02
    3   -0.27751850E+03   -0.58979670E-04    0.75664502E-03
    4   -0.27751851E+03   -0.81163192E-05    0.55609490E-03
    5   -0.27751851E+03   -0.42448494E-06    0.28158442E-03
    6   -0.27751851E+03   -0.19229333E-07    0.10182499E-03
    7   -0.27751851E+03   -0.22773975E-07    0.13521130E-04
    8   -0.27751851E+03   -0.61894525E-08    0.79457693E-05

Total Energy:                     -277.5185085286 H        -7551.6628 eV
Extrapolated to 0K:               -277.5185085286 H        -7551.6628 eV
Total Mermin free energy:         -277.5185085286 H        -7551.6628 eV
Force related energy:             -277.5185085286 H        -7551.6628 eV

Volume:                              0.145734E+05 au^3   0.215955E+04 A^3
Pressure:                            0.535207E-05 au     0.157463E+09 Pa
Maximal force component:             0.934618E-02
Averaged force norm:                 0.255359E-02
Maximal Lattice force component:     0.350781E-02 au
Averaged lattice force norm:         0.357120E-02 au
>> Charges saved for restart in charges.bin

--------------------------------------------------------------------------------

***  Geometry step: 34, Lattice step: 0

 iSCC Total electronic   Diff electronic      SCC error    
    1   -0.27751851E+03    0.00000000E+00    0.71510527E-02
    2   -0.27751882E+03   -0.31399601E-03    0.24987628E-02
    3   -0.27751888E+03   -0.57956370E-04    0.75163127E-03
    4   -0.27751889E+03   -0.80632505E-05    0.55300983E-03
    5   -0.27751889E+03   -0.42047986E-06    0.28108167E-03
    6   -0.27751889E+03   -0.20802986E-07    0.10219361E-03
    7   -0.27751889E+03   -0.22695360E-07    0.13732579E-04
    8   -0.27751889E+03   -0.61460241E-08    0.81456461E-05

Total Energy:                     -277.5188890145 H        -7551.6732 eV
Extrapolated to 0K:               -277.5188890145 H        -7551.6732 eV
Total Mermin free energy:         -277.5188890145 H        -7551.6732 eV
Force related energy:             -277.5188890145 H        -7551.6732 eV

Volume:                              0.145734E+05 au^3   0.215955E+04 A^3
Pressure:                            0.914491E-05 au     0.269052E+09 Pa
Maximal force component:             0.220691E-02
Averaged force norm:                 0.733737E-03
Maximal Lattice force component:     0.594722E-02 au
Averaged lattice force norm:         0.595106E-02 au
>> Charges saved for restart in charges.bin

--------------------------------------------------------------------------------

***  Geometry step: 35, Lattice step: 0

 iSCC Total electronic   Diff electronic      SCC error    
    1   -0.27751889E+03    0.00000000E+00    0.57256091E-02
    2   -0.27751885E+03    0.39182646E-04    0.17299251E-02
    3   -0.27751889E+03   -0.39241959E-04    0.53605280E-03
    4   -0.27751889E+03   -0.46871353E-05    0.31749864E-03
    5   -0.27751889E+03   -0.13189185E-06    0.12368817E-03
    6   -0.27751889E+03   -0.23096050E-08    0.51049393E-04
    7   -0.27751889E+03   -0.60590537E-08    0.17285955E-04
    8   -0.27751889E+03   -0.21449864E-08    0.41140971E-05

Total Energy:                     -277.5188939035 H        -7551.6733 eV
Extrapolated to 0K:               -277.5188939035 H        -7551.6733 eV
Total Mermin free energy:         -277.5188939035 H        -7551.6733 eV
Force related energy:             -277.5188939035 H        -7551.6733 eV

Volume:                              0.145734E+05 au^3   0.215955E+04 A^3
Pressure:                            0.893563E-05 au     0.262895E+09 Pa
Maximal force component:             0.442533E-02
Averaged force norm:                 0.146667E-02
Maximal Lattice force component:     0.583141E-02 au
Averaged lattice force norm:         0.584986E-02 au
>> Charges saved for restart in charges.bin

--------------------------------------------------------------------------------

***  Geometry step: 36, Lattice step: 0

 iSCC Total electronic   Diff electronic      SCC error    
    1   -0.27751889E+03    0.00000000E+00    0.27901553E-02
    2   -0.27751894E+03   -0.42312757E-04    0.84859864E-03
    3   -0.27751895E+03   -0.93180155E-05    0.26129046E-03
    4   -0.27751895E+03   -0.11186276E-05    0.15518654E-03
    5   -0.27751895E+03   -0.31274510E-07    0.60670427E-04
    6   -0.27751895E+03   -0.58957994E-09    0.25182500E-04
    7   -0.27751895E+03   -0.14423449E-08    0.86013539E-05

Total Energy:                     -277.5189466868 H        -7551.6748 eV
Extrapolated to 0K:               -277.5189466868 H        -7551.6748 eV
Total Mermin free energy:         -277.5189466868 H        -7551.6748 eV
Force related energy:             -277.5189466868 H        -7551.6748 eV

Volume:                              0.145734E+05 au^3   0.215955E+04 A^3
Pressure:                            0.903167E-05 au     0.265721E+09 Pa
Maximal force component:             0.142827E-02
Averaged force norm:                 0.661821E-03
Maximal Lattice force component:     0.588409E-02 au
Averaged lattice force norm:         0.588568E-02 au
>> Charges saved for restart in charges.bin

--------------------------------------------------------------------------------

***  Geometry step: 37, Lattice step: 0

 iSCC Total electronic   Diff electronic      SCC error    
    1   -0.27751895E+03    0.00000000E+00    0.10514179E-02
    2   -0.27751901E+03   -0.64001901E-04    0.36645891E-03
    3   -0.27751901E+03   -0.12208754E-05    0.13942189E-03
    4   -0.27751901E+03   -0.15520624E-06    0.69547130E-04
    5   -0.27751901E+03   -0.15674004E-08    0.27604111E-04
    6   -0.27751901E+03   -0.21373694E-08    0.98120536E-05

Total Energy:                     -277.5190120698 H        -7551.6765 eV
Extrapolated to 0K:               -277.5190120698 H        -7551.6765 eV
Total Mermin free energy:         -277.5190120698 H        -7551.6765 eV
Force related energy:             -277.5190120698 H        -7551.6765 eV

Volume:                              0.145734E+05 au^3   0.215955E+04 A^3
Pressure:                            0.108920E-04 au     0.320454E+09 Pa
Maximal force component:             0.717023E-03
Averaged force norm:                 0.326308E-03
Maximal Lattice force component:     0.709211E-02 au
Averaged lattice force norm:         0.709213E-02 au
>> Charges saved for restart in charges.bin

--------------------------------------------------------------------------------

***  Geometry step: 38, Lattice step: 0

 iSCC Total electronic   Diff electronic      SCC error    
    1   -0.27751901E+03    0.00000000E+00    0.17027940E-02
    2   -0.27751899E+03    0.18293113E-04    0.59449125E-03
    3   -0.27751900E+03   -0.31921529E-05    0.22488795E-03
    4   -0.27751900E+03   -0.40614668E-06    0.11211888E-03
    5   -0.27751900E+03   -0.38879762E-08    0.44387552E-04
    6   -0.27751900E+03   -0.55971441E-08    0.15261450E-04
    7   -0.27751900E+03   -0.34001459E-08    0.97184467E-05

Total Energy:                     -277.5189973881 H        -7551.6761 eV
Extrapolated to 0K:               -277.5189973881 H        -7551.6761 eV
Total Mermin free energy:         -277.5189973881 H        -7551.6761 eV
Force related energy:             -277.5189973881 H        -7551.6761 eV

Volume:                              0.145734E+05 au^3   0.215955E+04 A^3
Pressure:                            0.139126E-04 au     0.409322E+09 Pa
Maximal force component:             0.132902E-02
Averaged force norm:                 0.638229E-03
Maximal Lattice force component:     0.905359E-02 au
Averaged lattice force norm:         0.905489E-02 au
>> Charges saved for restart in charges.bin

--------------------------------------------------------------------------------

***  Geometry step: 39, Lattice step: 0

 iSCC Total electronic   Diff electronic      SCC error    
    1   -0.27751900E+03    0.00000000E+00    0.10228152E-02
    2   -0.27751902E+03   -0.25408396E-04    0.35711159E-03
    3   -0.27751902E+03   -0.11493668E-05    0.13317836E-03
    4   -0.27751902E+03   -0.14703465E-06    0.66860788E-04
    5   -0.27751902E+03   -0.16967192E-08    0.27340715E-04
    6   -0.27751902E+03   -0.20265816E-08    0.98638185E-05

Total Energy:                     -277.5190240979 H        -7551.6769 eV
Extrapolated to 0K:               -277.5190240979 H        -7551.6769 eV
Total Mermin free energy:         -277.5190240979 H        -7551.6769 eV
Force related energy:             -277.5190240979 H        -7551.6769 eV

Volume:                              0.145734E+05 au^3   0.215955E+04 A^3
Pressure:                            0.121042E-04 au     0.356118E+09 Pa
Maximal force component:             0.760177E-03
Averaged force norm:                 0.319983E-03
Maximal Lattice force component:     0.787928E-02 au
Averaged lattice force norm:         0.787939E-02 au
>> Charges saved for restart in charges.bin

--------------------------------------------------------------------------------

***  Geometry step: 40, Lattice step: 0

 iSCC Total electronic   Diff electronic      SCC error    
    1   -0.27751902E+03    0.00000000E+00    0.31167096E-02
    2   -0.27751893E+03    0.93747083E-04    0.14265502E-02
    3   -0.27751895E+03   -0.19990106E-04    0.76364107E-03
    4   -0.27751895E+03   -0.24532202E-05    0.27848171E-03
    5   -0.27751895E+03   -0.41916320E-06    0.87033005E-04
    6   -0.27751895E+03   -0.32432411E-07    0.41913721E-04
    7   -0.27751895E+03   -0.10755173E-07    0.14674090E-04
    8   -0.27751895E+03   -0.14192665E-08    0.67615928E-05

Total Energy:                     -277.5189532580 H        -7551.6749 eV
Extrapolated to 0K:               -277.5189532580 H        -7551.6749 eV
Total Mermin free energy:         -277.5189532580 H        -7551.6749 eV
Force related energy:             -277.5189532580 H        -7551.6749 eV

Volume:                              0.145734E+05 au^3   0.215955E+04 A^3
Pressure:                            0.123551E-04 au     0.363500E+09 Pa
Maximal force component:             0.283040E-02
Averaged force norm:                 0.127485E-02
Maximal Lattice force component:     0.804520E-02 au
Averaged lattice force norm:         0.804861E-02 au
>> Charges saved for restart in charges.bin

--------------------------------------------------------------------------------

***  Geometry step: 41, Lattice step: 0

 iSCC Total electronic   Diff electronic      SCC error    
    1   -0.27751895E+03    0.00000000E+00    0.22144136E-02
    2   -0.27751903E+03   -0.73931471E-04    0.10076255E-02
    3   -0.27751904E+03   -0.10060011E-04    0.54081489E-03
    4   -0.27751904E+03   -0.12260367E-05    0.19663920E-03
    5   -0.27751904E+03   -0.21235263E-06    0.61469581E-04
    6   -0.27751904E+03   -0.16271144E-07    0.29496261E-04
    7   -0.27751904E+03   -0.53751137E-08    0.10383307E-04
    8   -0.27751904E+03   -0.71048589E-09    0.46136454E-05

Total Energy:                     -277.5190387103 H        -7551.6773 eV
Extrapolated to 0K:               -277.5190387103 H        -7551.6773 eV
Total Mermin free energy:         -277.5190387103 H        -7551.6773 eV
Force related energy:             -277.5190387103 H        -7551.6773 eV

Volume:                              0.145734E+05 au^3   0.215955E+04 A^3
Pressure:                            0.121709E-04 au     0.358080E+09 Pa
Maximal force component:             0.624518E-03
Averaged force norm:                 0.295152E-03
Maximal Lattice force component:     0.792345E-02 au
Averaged lattice force norm:         0.792359E-02 au
>> Charges saved for restart in charges.bin

--------------------------------------------------------------------------------

***  Geometry step: 42, Lattice step: 0

 iSCC Total electronic   Diff electronic      SCC error    
    1   -0.27751904E+03    0.00000000E+00    0.61284866E-03
    2   -0.27751905E+03   -0.12447226E-04    0.27726258E-03
    3   -0.27751905E+03   -0.65091524E-06    0.15067650E-03
    4   -0.27751905E+03   -0.15271780E-06    0.95066924E-04
    5   -0.27751905E+03   -0.70508008E-08    0.37592812E-04
    6   -0.27751905E+03   -0.30837555E-09    0.79878255E-05

Total Energy:                     -277.5190519690 H        -7551.6776 eV
Extrapolated to 0K:               -277.5190519690 H        -7551.6776 eV
Total Mermin free energy:         -277.5190519690 H        -7551.6776 eV
Force related energy:             -277.5190519690 H        -7551.6776 eV

Volume:                              0.145734E+05 au^3   0.215955E+04 A^3
Pressure:                            0.125604E-04 au     0.369538E+09 Pa
Maximal force component:             0.359653E-03
Averaged force norm:                 0.173602E-03
Maximal Lattice force component:     0.817722E-02 au
Averaged lattice force norm:         0.817729E-02 au
>> Charges saved for restart in charges.bin

--------------------------------------------------------------------------------

***  Geometry step: 43, Lattice step: 0

 iSCC Total electronic   Diff electronic      SCC error    
    1   -0.27751905E+03    0.00000000E+00    0.98909233E-03
    2   -0.27751903E+03    0.19319892E-04    0.44931130E-03
    3   -0.27751903E+03   -0.16985913E-05    0.24536911E-03
    4   -0.27751903E+03   -0.39803899E-06    0.15473077E-03
    5   -0.27751903E+03   -0.18158858E-07    0.61126425E-04
    6   -0.27751903E+03   -0.76801143E-09    0.12868673E-04
    7   -0.27751903E+03   -0.13170620E-08    0.48892137E-05

Total Energy:                     -277.5190347661 H        -7551.6772 eV
Extrapolated to 0K:               -277.5190347661 H        -7551.6772 eV
Total Mermin free energy:         -277.5190347661 H        -7551.6772 eV
Force related energy:             -277.5190347661 H        -7551.6772 eV

Volume:                              0.145734E+05 au^3   0.215955E+04 A^3
Pressure:                            0.131982E-04 au     0.388306E+09 Pa
Maximal force component:             0.130411E-02
Averaged force norm:                 0.548656E-03
Maximal Lattice force component:     0.859281E-02 au
Averaged lattice force norm:         0.859466E-02 au
>> Charges saved for restart in charges.bin

--------------------------------------------------------------------------------

***  Geometry step: 44, Lattice step: 0

 iSCC Total electronic   Diff electronic      SCC error    
    1   -0.27751903E+03    0.00000000E+00    0.85383495E-03
    2   -0.27751905E+03   -0.16099957E-04    0.38523705E-03
    3   -0.27751905E+03   -0.12625474E-05    0.20849645E-03
    4   -0.27751905E+03   -0.29626898E-06    0.13229300E-03
    5   -0.27751905E+03   -0.13716829E-07    0.51839654E-04
    6   -0.27751905E+03   -0.63920425E-09    0.10820273E-04
    7   -0.27751905E+03   -0.94030383E-09    0.43931984E-05

Total Energy:                     -277.5190524403 H        -7551.6776 eV
Extrapolated to 0K:               -277.5190524403 H        -7551.6776 eV
Total Mermin free energy:         -277.5190524403 H        -7551.6776 eV
Force related energy:             -277.5190524403 H        -7551.6776 eV

Volume:                              0.145734E+05 au^3   0.215955E+04 A^3
Pressure:                            0.126500E-04 au     0.372176E+09 Pa
Maximal force component:             0.398133E-03
Averaged force norm:                 0.202505E-03
Maximal Lattice force component:     0.823563E-02 au
Averaged lattice force norm:         0.823581E-02 au
>> Charges saved for restart in charges.bin

--------------------------------------------------------------------------------

***  Geometry step: 45, Lattice step: 0

 iSCC Total electronic   Diff electronic      SCC error    
    1   -0.27751905E+03    0.00000000E+00    0.13496950E-02
    2   -0.27751905E+03   -0.10376626E-05    0.35636295E-03
    3   -0.27751906E+03   -0.37863624E-05    0.14208392E-03
    4   -0.27751906E+03   -0.34551510E-06    0.81319502E-04
    5   -0.27751906E+03   -0.15770127E-07    0.31173842E-04
    6   -0.27751906E+03   -0.69695716E-09    0.69887047E-05

Total Energy:                     -277.5190576269 H        -7551.6778 eV
Extrapolated to 0K:               -277.5190576269 H        -7551.6778 eV
Total Mermin free energy:         -277.5190576269 H        -7551.6778 eV
Force related energy:             -277.5190576269 H        -7551.6778 eV

Volume:                              0.145734E+05 au^3   0.215955E+04 A^3
Pressure:                            0.122328E-04 au     0.359900E+09 Pa
Maximal force component:             0.127223E-02
Averaged force norm:                 0.378987E-03
Maximal Lattice force component:     0.796134E-02 au
Averaged lattice force norm:         0.796457E-02 au
>> Charges saved for restart in charges.bin

--------------------------------------------------------------------------------

***  Geometry step: 46, Lattice step: 0

 iSCC Total electronic   Diff electronic      SCC error    
    1   -0.27751906E+03    0.00000000E+00    0.43802498E-03
    2   -0.27751906E+03   -0.11196539E-05    0.11738647E-03
    3   -0.27751906E+03   -0.39164621E-06    0.44706542E-04
    4   -0.27751906E+03   -0.35962898E-07    0.25170702E-04
    5   -0.27751906E+03   -0.16729018E-08    0.99528335E-05

Total Energy:                     -277.5190591759 H        -7551.6778 eV
Extrapolated to 0K:               -277.5190591759 H        -7551.6778 eV
Total Mermin free energy:         -277.5190591759 H        -7551.6778 eV
Force related energy:             -277.5190591759 H        -7551.6778 eV

Volume:                              0.145734E+05 au^3   0.215955E+04 A^3
Pressure:                            0.123673E-04 au     0.363858E+09 Pa
Maximal force component:             0.751679E-03
Averaged force norm:                 0.248788E-03
Maximal Lattice force component:     0.804978E-02 au
Averaged lattice force norm:         0.805093E-02 au
>> Charges saved for restart in charges.bin

--------------------------------------------------------------------------------

***  Geometry step: 47, Lattice step: 0

 iSCC Total electronic   Diff electronic      SCC error    
    1   -0.27751906E+03    0.00000000E+00    0.86301963E-03
    2   -0.27751906E+03   -0.46370833E-05    0.20672567E-03
    3   -0.27751907E+03   -0.18117149E-05    0.11245343E-03
    4   -0.27751907E+03   -0.89702837E-07    0.71850865E-04
    5   -0.27751907E+03   -0.95670885E-08    0.18226092E-04
    6   -0.27751907E+03   -0.37454129E-09    0.63943331E-05

Total Energy:                     -277.5190657246 H        -7551.6780 eV
Extrapolated to 0K:               -277.5190657246 H        -7551.6780 eV
Total Mermin free energy:         -277.5190657246 H        -7551.6780 eV
Force related energy:             -277.5190657246 H        -7551.6780 eV

Volume:                              0.145734E+05 au^3   0.215955E+04 A^3
Pressure:                            0.117791E-04 au     0.346553E+09 Pa
Maximal force component:             0.382427E-03
Averaged force norm:                 0.110193E-03
Maximal Lattice force component:     0.766833E-02 au
Averaged lattice force norm:         0.766835E-02 au
>> Charges saved for restart in charges.bin

--------------------------------------------------------------------------------

***  Geometry step: 48, Lattice step: 0

 iSCC Total electronic   Diff electronic      SCC error    
    1   -0.27751907E+03    0.00000000E+00    0.14021699E-02
    2   -0.27751905E+03    0.16561264E-04    0.34290587E-03
    3   -0.27751905E+03   -0.47474595E-05    0.17680894E-03
    4   -0.27751905E+03   -0.23340613E-06    0.11161993E-03
    5   -0.27751905E+03   -0.24921633E-07    0.28696749E-04
    6   -0.27751905E+03   -0.92478558E-09    0.10288728E-04
    7   -0.27751905E+03   -0.70428996E-09    0.60537481E-05

Total Energy:                     -277.5190541708 H        -7551.6777 eV
Extrapolated to 0K:               -277.5190541708 H        -7551.6777 eV
Total Mermin free energy:         -277.5190541708 H        -7551.6777 eV
Force related energy:             -277.5190541708 H        -7551.6777 eV

Volume:                              0.145734E+05 au^3   0.215955E+04 A^3
Pressure:                            0.108300E-04 au     0.318629E+09 Pa
Maximal force component:             0.138032E-02
Averaged force norm:                 0.430587E-03
Maximal Lattice force component:     0.705276E-02 au
Averaged lattice force norm:         0.705652E-02 au
>> Charges saved for restart in charges.bin

--------------------------------------------------------------------------------

***  Geometry step: 49, Lattice step: 0

 iSCC Total electronic   Diff electronic      SCC error    
    1   -0.27751905E+03    0.00000000E+00    0.12918138E-02
    2   -0.27751906E+03   -0.73906476E-05    0.31893226E-03
    3   -0.27751907E+03   -0.40238046E-05    0.16909231E-03
    4   -0.27751907E+03   -0.19921760E-06    0.10024550E-03
    5   -0.27751907E+03   -0.21170081E-07    0.26392273E-04
    6   -0.27751907E+03   -0.90074082E-09    0.95958019E-05

Total Energy:                     -277.5190658072 H        -7551.6780 eV
Extrapolated to 0K:               -277.5190658072 H        -7551.6780 eV
Total Mermin free energy:         -277.5190658072 H        -7551.6780 eV
Force related energy:             -277.5190658072 H        -7551.6780 eV

Volume:                              0.145734E+05 au^3   0.215955E+04 A^3
Pressure:                            0.117049E-04 au     0.344371E+09 Pa
Maximal force component:             0.398774E-03
Averaged force norm:                 0.120166E-03
Maximal Lattice force component:     0.762023E-02 au
Averaged lattice force norm:         0.762027E-02 au
>> Charges saved for restart in charges.bin

--------------------------------------------------------------------------------

***  Geometry step: 50, Lattice step: 0

 iSCC Total electronic   Diff electronic      SCC error    
    1   -0.27751907E+03    0.00000000E+00    0.13040668E-02
    2   -0.27751906E+03    0.38067005E-05    0.56828746E-03
    3   -0.27751907E+03   -0.34608221E-05    0.36534096E-03
    4   -0.27751907E+03   -0.82161137E-07    0.83753080E-04
    5   -0.27751907E+03   -0.22793245E-07    0.32978357E-04
    6   -0.27751907E+03   -0.41869725E-08    0.16723671E-04
    7   -0.27751907E+03   -0.42524562E-09    0.55375824E-05

Total Energy:                     -277.5190655709 H        -7551.6780 eV
Extrapolated to 0K:               -277.5190655709 H        -7551.6780 eV
Total Mermin free energy:         -277.5190655709 H        -7551.6780 eV
Force related energy:             -277.5190655709 H        -7551.6780 eV

Volume:                              0.145734E+05 au^3   0.215955E+04 A^3
Pressure:                            0.113074E-04 au     0.332675E+09 Pa
Maximal force component:             0.111712E-02
Averaged force norm:                 0.312960E-03
Maximal Lattice force component:     0.736026E-02 au
Averaged lattice force norm:         0.736050E-02 au
>> Charges saved for restart in charges.bin

--------------------------------------------------------------------------------

***  Geometry step: 51, Lattice step: 0

 iSCC Total electronic   Diff electronic      SCC error    
    1   -0.27751907E+03    0.00000000E+00    0.66190238E-03
    2   -0.27751907E+03   -0.15873489E-05    0.28807849E-03
    3   -0.27751907E+03   -0.90326267E-06    0.18514928E-03
    4   -0.27751907E+03   -0.21369203E-07    0.42520882E-04
    5   -0.27751907E+03   -0.59577587E-08    0.16710205E-04
[...]

--------------------------------------------------------------------------------

***  Geometry step: 226, Lattice step: 5

 iSCC Total electronic   Diff electronic      SCC error    
    1   -0.27752020E+03    0.00000000E+00    0.35995310E-02
    2   -0.27752011E+03    0.88850519E-04    0.20935692E-02
    3   -0.27752011E+03   -0.55740372E-05    0.82678458E-03
    4   -0.27752011E+03   -0.11558150E-05    0.25916200E-03
    5   -0.27752011E+03   -0.30014291E-07    0.88506289E-04
    6   -0.27752011E+03   -0.98248734E-08    0.45852073E-04
    7   -0.27752011E+03   -0.10912402E-07    0.22030901E-04
    8   -0.27752011E+03   -0.36936854E-09    0.24538942E-05

Total Energy:                     -277.5201144578 H        -7551.7065 eV
Extrapolated to 0K:               -277.5201144578 H        -7551.7065 eV
Total Mermin free energy:         -277.5201144578 H        -7551.7065 eV
Force related energy:             -277.5201144578 H        -7551.7065 eV

Volume:                              0.147269E+05 au^3   0.218230E+04 A^3
Pressure:                           -0.593861E-06 au    -0.174720E+08 Pa
Maximal force component:             0.296839E-02
Averaged force norm:                 0.133107E-02
Maximal Lattice force component:     0.582983E-03 au
Averaged lattice force norm:         0.672824E-03 au
>> Charges saved for restart in charges.bin

--------------------------------------------------------------------------------

***  Geometry step: 227, Lattice step: 5

 iSCC Total electronic   Diff electronic      SCC error    
    1   -0.27752011E+03    0.00000000E+00    0.28131568E-02
    2   -0.27752020E+03   -0.84641657E-04    0.16394436E-02
    3   -0.27752020E+03   -0.34123523E-05    0.64682137E-03
    4   -0.27752020E+03   -0.70974568E-06    0.20204107E-03
    5   -0.27752020E+03   -0.18211040E-07    0.68985679E-04
    6   -0.27752020E+03   -0.60142611E-08    0.35697107E-04
    7   -0.27752020E+03   -0.66767143E-08    0.17230611E-04
    8   -0.27752020E+03   -0.22453150E-09    0.19376585E-05

Total Energy:                     -277.5202032527 H        -7551.7090 eV
Extrapolated to 0K:               -277.5202032527 H        -7551.7090 eV
Total Mermin free energy:         -277.5202032527 H        -7551.7090 eV
Force related energy:             -277.5202032527 H        -7551.7090 eV

Volume:                              0.147269E+05 au^3   0.218230E+04 A^3
Pressure:                            0.250966E-06 au     0.738368E+07 Pa
Maximal force component:             0.292946E-03
Averaged force norm:                 0.125002E-03
Maximal Lattice force component:     0.195435E-03 au
Averaged lattice force norm:         0.224443E-03 au
>> Charges saved for restart in charges.bin

--------------------------------------------------------------------------------

***  Geometry step: 228, Lattice step: 5

 iSCC Total electronic   Diff electronic      SCC error    
    1   -0.27752020E+03    0.00000000E+00    0.13428420E-03
    2   -0.27752021E+03   -0.29740751E-05    0.66454715E-04
    3   -0.27752021E+03   -0.33974459E-07    0.28726963E-04
    4   -0.27752021E+03   -0.81658982E-08    0.13504634E-04
    5   -0.27752021E+03   -0.59901595E-09    0.60545424E-05

Total Energy:                     -277.5202062696 H        -7551.7090 eV
Extrapolated to 0K:               -277.5202062696 H        -7551.7090 eV
Total Mermin free energy:         -277.5202062696 H        -7551.7090 eV
Force related energy:             -277.5202062696 H        -7551.7090 eV

Volume:                              0.147269E+05 au^3   0.218230E+04 A^3
Pressure:                            0.487852E-07 au     0.143531E+07 Pa
Maximal force component:             0.157863E-03
Averaged force norm:                 0.834541E-04
Maximal Lattice force component:     0.137779E-03 au
Averaged lattice force norm:         0.164782E-03 au
>> Charges saved for restart in charges.bin

--------------------------------------------------------------------------------

***  Geometry step: 229, Lattice step: 5

 iSCC Total electronic   Diff electronic      SCC error    
    1   -0.27752021E+03    0.00000000E+00    0.22067499E-03
    2   -0.27752020E+03    0.26723711E-05    0.10993878E-03
    3   -0.27752020E+03   -0.87844001E-07    0.47822444E-04
    4   -0.27752020E+03   -0.20443110E-07    0.21607448E-04
    5   -0.27752020E+03   -0.14482566E-08    0.96979949E-05

Total Energy:                     -277.5202037070 H        -7551.7090 eV
Extrapolated to 0K:               -277.5202037070 H        -7551.7090 eV
Total Mermin free energy:         -277.5202037070 H        -7551.7090 eV
Force related energy:             -277.5202037070 H        -7551.7090 eV

Volume:                              0.147269E+05 au^3   0.218230E+04 A^3
Pressure:                           -0.277764E-06 au    -0.817211E+07 Pa
Maximal force component:             0.468508E-03
Averaged force norm:                 0.231314E-03
Maximal Lattice force component:     0.198292E-03 au
Averaged lattice force norm:         0.201095E-03 au
>> Charges saved for restart in charges.bin

--------------------------------------------------------------------------------

***  Geometry step: 230, Lattice step: 5

 iSCC Total electronic   Diff electronic      SCC error    
    1   -0.27752020E+03    0.00000000E+00    0.16768536E-03
    2   -0.27752021E+03   -0.27060608E-05    0.82303445E-04
    3   -0.27752021E+03   -0.56386455E-07    0.35144882E-04
    4   -0.27752021E+03   -0.14558452E-07    0.17297709E-04
    5   -0.27752021E+03   -0.11374937E-08    0.82398407E-05

Total Energy:                     -277.5202064852 H        -7551.7090 eV
Extrapolated to 0K:               -277.5202064852 H        -7551.7090 eV
Total Mermin free energy:         -277.5202064852 H        -7551.7090 eV
Force related energy:             -277.5202064852 H        -7551.7090 eV

Volume:                              0.147269E+05 au^3   0.218230E+04 A^3
Pressure:                           -0.239720E-07 au    -0.705282E+06 Pa
Maximal force component:             0.206534E-03
Averaged force norm:                 0.103290E-03
Maximal Lattice force component:     0.134318E-03 au
Averaged lattice force norm:         0.157476E-03 au
>> Charges saved for restart in charges.bin

--------------------------------------------------------------------------------

***  Geometry step: 231, Lattice step: 5

 iSCC Total electronic   Diff electronic      SCC error    
    1   -0.27752021E+03    0.00000000E+00    0.38219647E-03
    2   -0.27752021E+03   -0.36628819E-07    0.15998776E-03
    3   -0.27752021E+03   -0.23185015E-06    0.64108002E-04
    4   -0.27752021E+03   -0.44276533E-07    0.33791099E-04
    5   -0.27752021E+03   -0.27640681E-08    0.13227299E-04
    6   -0.27752021E+03   -0.69235284E-10    0.34736574E-05

Total Energy:                     -277.5202068010 H        -7551.7091 eV
Extrapolated to 0K:               -277.5202068010 H        -7551.7091 eV
Total Mermin free energy:         -277.5202068010 H        -7551.7091 eV
Force related energy:             -277.5202068010 H        -7551.7091 eV

Volume:                              0.147269E+05 au^3   0.218230E+04 A^3
Pressure:                           -0.124495E-06 au    -0.366276E+07 Pa
Maximal force component:             0.347919E-03
Averaged force norm:                 0.170083E-03
Maximal Lattice force component:     0.119244E-03 au
Averaged lattice force norm:         0.131942E-03 au
>> Charges saved for restart in charges.bin

--------------------------------------------------------------------------------

***  Geometry step: 232, Lattice step: 5

 iSCC Total electronic   Diff electronic      SCC error    
    1   -0.27752021E+03    0.00000000E+00    0.17415407E-03
    2   -0.27752021E+03   -0.77532894E-06    0.72008014E-04
    3   -0.27752021E+03   -0.49755272E-07    0.28943559E-04
    4   -0.27752021E+03   -0.95748192E-08    0.14984864E-04
    5   -0.27752021E+03   -0.64903816E-09    0.63387459E-05

Total Energy:                     -277.5202076364 H        -7551.7091 eV
Extrapolated to 0K:               -277.5202076364 H        -7551.7091 eV
Total Mermin free energy:         -277.5202076364 H        -7551.7091 eV
Force related energy:             -277.5202076364 H        -7551.7091 eV

Volume:                              0.147269E+05 au^3   0.218230E+04 A^3
Pressure:                           -0.783557E-07 au    -0.230530E+07 Pa
Maximal force component:             0.165340E-03
Averaged force norm:                 0.771182E-04
Maximal Lattice force component:     0.112482E-03 au
Averaged lattice force norm:         0.140133E-03 au
>> Charges saved for restart in charges.bin

--------------------------------------------------------------------------------

***  Geometry step: 233, Lattice step: 5

 iSCC Total electronic   Diff electronic      SCC error    
    1   -0.27752021E+03    0.00000000E+00    0.14993943E-03
    2   -0.27752021E+03   -0.10549294E-05    0.60641095E-04
    3   -0.27752021E+03   -0.44904084E-07    0.26140792E-04
    4   -0.27752021E+03   -0.68819190E-08    0.13828652E-04
    5   -0.27752021E+03   -0.70264150E-09    0.51272214E-05

Total Energy:                     -277.5202087438 H        -7551.7091 eV
Extrapolated to 0K:               -277.5202087438 H        -7551.7091 eV
Total Mermin free energy:         -277.5202087438 H        -7551.7091 eV
Force related energy:             -277.5202087438 H        -7551.7091 eV

Volume:                              0.147269E+05 au^3   0.218230E+04 A^3
Pressure:                           -0.122067E-06 au    -0.359134E+07 Pa
Maximal force component:             0.907697E-04
Averaged force norm:                 0.482436E-04
Maximal Lattice force component:     0.119094E-03 au
Averaged lattice force norm:         0.133020E-03 au
>> Charges saved for restart in charges.bin

--------------------------------------------------------------------------------

***  Geometry step: 234, Lattice step: 5

 iSCC Total electronic   Diff electronic      SCC error    
    1   -0.27752021E+03    0.00000000E+00    0.24863307E-03
    2   -0.27752021E+03    0.61289109E-06    0.10117012E-03
    3   -0.27752021E+03   -0.11947310E-06    0.44446855E-04
    4   -0.27752021E+03   -0.18693186E-07    0.23787152E-04
    5   -0.27752021E+03   -0.18825403E-08    0.83093923E-05

Total Energy:                     -277.5202082710 H        -7551.7091 eV
Extrapolated to 0K:               -277.5202082710 H        -7551.7091 eV
Total Mermin free energy:         -277.5202082710 H        -7551.7091 eV
Force related energy:             -277.5202082710 H        -7551.7091 eV

Volume:                              0.147269E+05 au^3   0.218230E+04 A^3
Pressure:                           -0.193025E-06 au    -0.567898E+07 Pa
Maximal force component:             0.332182E-03
Averaged force norm:                 0.119820E-03
Maximal Lattice force component:     0.133005E-03 au
Averaged lattice force norm:         0.135987E-03 au
>> Charges saved for restart in charges.bin

--------------------------------------------------------------------------------

***  Geometry step: 235, Lattice step: 5

 iSCC Total electronic   Diff electronic      SCC error    
    1   -0.27752021E+03    0.00000000E+00    0.17691485E-03
    2   -0.27752021E+03   -0.55739281E-06    0.74256387E-04
    3   -0.27752021E+03   -0.55868611E-07    0.27931520E-04
    4   -0.27752021E+03   -0.93421590E-08    0.15440474E-04
    5   -0.27752021E+03   -0.96270014E-09    0.54141478E-05

Total Energy:                     -277.5202088946 H        -7551.7091 eV
Extrapolated to 0K:               -277.5202088946 H        -7551.7091 eV
Total Mermin free energy:         -277.5202088946 H        -7551.7091 eV
Force related energy:             -277.5202088946 H        -7551.7091 eV

Volume:                              0.147269E+05 au^3   0.218230E+04 A^3
Pressure:                           -0.145043E-06 au    -0.426730E+07 Pa
Maximal force component:             0.151472E-03
Averaged force norm:                 0.615561E-04
Maximal Lattice force component:     0.123815E-03 au
Averaged lattice force norm:         0.132284E-03 au
>> Charges saved for restart in charges.bin

--------------------------------------------------------------------------------

***  Geometry step: 236, Lattice step: 5

 iSCC Total electronic   Diff electronic      SCC error    
    1   -0.27752021E+03    0.00000000E+00    0.51991721E-03
    2   -0.27752021E+03    0.51816545E-06    0.21325325E-03
    3   -0.27752021E+03   -0.32136501E-06    0.96891831E-04
    4   -0.27752021E+03   -0.56357976E-07    0.56003725E-04
    5   -0.27752021E+03   -0.14022703E-08    0.17245782E-04
    6   -0.27752021E+03   -0.99703357E-10    0.39733641E-05

Total Energy:                     -277.5202087557 H        -7551.7091 eV
Extrapolated to 0K:               -277.5202087557 H        -7551.7091 eV
Total Mermin free energy:         -277.5202087557 H        -7551.7091 eV
Force related energy:             -277.5202087557 H        -7551.7091 eV

Volume:                              0.147269E+05 au^3   0.218230E+04 A^3
Pressure:                           -0.919991E-07 au    -0.270671E+07 Pa
Maximal force component:             0.521516E-03
Averaged force norm:                 0.133368E-03
Maximal Lattice force component:     0.659281E-04 au
Averaged lattice force norm:         0.696861E-04 au
>> Charges saved for restart in charges.bin

--------------------------------------------------------------------------------

***  Geometry step: 237, Lattice step: 5

 iSCC Total electronic   Diff electronic      SCC error    
    1   -0.27752021E+03    0.00000000E+00    0.27832233E-03
    2   -0.27752021E+03   -0.45198925E-06    0.10910712E-03
    3   -0.27752021E+03   -0.89580226E-07    0.48451311E-04
    4   -0.27752021E+03   -0.15782405E-07    0.28144225E-04
    5   -0.27752021E+03   -0.39739234E-09    0.91255398E-05

Total Energy:                     -277.5202093135 H        -7551.7091 eV
Extrapolated to 0K:               -277.5202093135 H        -7551.7091 eV
Total Mermin free energy:         -277.5202093135 H        -7551.7091 eV
Force related energy:             -277.5202093135 H        -7551.7091 eV

Volume:                              0.147269E+05 au^3   0.218230E+04 A^3
Pressure:                           -0.119931E-06 au    -0.352850E+07 Pa
Maximal force component:             0.165828E-03
Averaged force norm:                 0.537947E-04
Maximal Lattice force component:     0.964846E-04 au
Averaged lattice force norm:         0.100951E-03 au
>> Charges saved for restart in charges.bin

--------------------------------------------------------------------------------

***  Geometry step: 238, Lattice step: 5

 iSCC Total electronic   Diff electronic      SCC error    
    1   -0.27752021E+03    0.00000000E+00    0.17974915E-03
    2   -0.27752021E+03   -0.27673849E-06    0.55328720E-04
    3   -0.27752021E+03   -0.39382201E-07    0.16249078E-04
    4   -0.27752021E+03   -0.58469709E-08    0.10523125E-04
    5   -0.27752021E+03   -0.15438673E-09    0.51824342E-05

Total Energy:                     -277.5202096356 H        -7551.7091 eV
Extrapolated to 0K:               -277.5202096356 H        -7551.7091 eV
Total Mermin free energy:         -277.5202096356 H        -7551.7091 eV
Force related energy:             -277.5202096356 H        -7551.7091 eV

Volume:                              0.147269E+05 au^3   0.218230E+04 A^3
Pressure:                           -0.791942E-07 au    -0.232997E+07 Pa
Maximal force component:             0.609773E-04
Averaged force norm:                 0.331029E-04
Maximal Lattice force component:     0.599465E-04 au
Averaged lattice force norm:         0.632431E-04 au
>> Charges saved for restart in charges.bin

--------------------------------------------------------------------------------

***  Geometry step: 239, Lattice step: 5

 iSCC Total electronic   Diff electronic      SCC error    
    1   -0.27752021E+03    0.00000000E+00    0.29204095E-03
    2   -0.27752021E+03    0.10032483E-05    0.92393159E-04
    3   -0.27752021E+03   -0.10204940E-06    0.28982536E-04
    4   -0.27752021E+03   -0.15200271E-07    0.18054840E-04
    5   -0.27752021E+03   -0.38460257E-09    0.86672998E-05

Total Energy:                     -277.5202087500 H        -7551.7091 eV
Extrapolated to 0K:               -277.5202087500 H        -7551.7091 eV
Total Mermin free energy:         -277.5202087500 H        -7551.7091 eV
Force related energy:             -277.5202087500 H        -7551.7091 eV

Volume:                              0.147269E+05 au^3   0.218230E+04 A^3
Pressure:                           -0.128364E-07 au    -0.377660E+06 Pa
Maximal force component:             0.400665E-03
Averaged force norm:                 0.121907E-03
Maximal Lattice force component:     0.363542E-04 au
Averaged lattice force norm:         0.333649E-04 au
>> Charges saved for restart in charges.bin

--------------------------------------------------------------------------------

***  Geometry step: 240, Lattice step: 5

 iSCC Total electronic   Diff electronic      SCC error    
    1   -0.27752021E+03    0.00000000E+00    0.28936627E-03
    2   -0.27752021E+03   -0.77047520E-06    0.94297083E-04
    3   -0.27752021E+03   -0.99538511E-07    0.26036933E-04
    4   -0.27752021E+03   -0.15228011E-07    0.16202385E-04
    5   -0.27752021E+03   -0.37874770E-09    0.84197531E-05

Total Energy:                     -277.5202096356 H        -7551.7091 eV
Extrapolated to 0K:               -277.5202096356 H        -7551.7091 eV
Total Mermin free energy:         -277.5202096356 H        -7551.7091 eV
Force related energy:             -277.5202096356 H        -7551.7091 eV

Volume:                              0.147269E+05 au^3   0.218230E+04 A^3
Pressure:                           -0.785425E-07 au    -0.231080E+07 Pa
Maximal force component:             0.644151E-04
Averaged force norm:                 0.334128E-04
Maximal Lattice force component:     0.594746E-04 au
Averaged lattice force norm:         0.628290E-04 au
>> Charges saved for restart in charges.bin

--------------------------------------------------------------------------------

***  Geometry step: 241, Lattice step: 5

 iSCC Total electronic   Diff electronic      SCC error    
    1   -0.27752021E+03    0.00000000E+00    0.84197531E-05

Total Energy:                     -277.5202096356 H        -7551.7091 eV
Extrapolated to 0K:               -277.5202096356 H        -7551.7091 eV
Total Mermin free energy:         -277.5202096356 H        -7551.7091 eV
Force related energy:             -277.5202096356 H        -7551.7091 eV

Volume:                              0.147269E+05 au^3   0.218230E+04 A^3
Pressure:                           -0.785425E-07 au    -0.231080E+07 Pa
Maximal force component:             0.644151E-04
Averaged force norm:                 0.334128E-04
Maximal Lattice force component:     0.594746E-04 au
Averaged lattice force norm:         0.628290E-04 au
>> Charges saved for restart in charges.bin

Geometry converged

--------------------------------------------------------------------------------
DFTB+ running times                          cpu [s]             wall clock [s]
--------------------------------------------------------------------------------
Global initialisation                  +       0.00 (  0.0%)       0.02 (  0.0%)
Pre-SCC initialisation                 +     256.98 (  2.4%)     258.04 (  2.4%)
SCC                                    +    9623.73 ( 89.8%)    9699.75 ( 89.8%)
Post-SCC processing                    +     837.82 (  7.8%)     845.53 (  7.8%)
--------------------------------------------------------------------------------
Missing                                +       0.01 (  0.0%)       0.03 (  0.0%)
Total                                  =   10718.54 (100.0%)   10803.37 (100.0%)
--------------------------------------------------------------------------------