  114
** Geometry step: 241, Lattice step: 5
    H      9.41904174      9.04642254      4.87162282      0.94732971
    H     15.80381402      5.51508149     10.19516567      0.94732712
    H     13.31344127     11.45216515      1.80257246      0.94734440
    H     19.69864401      7.60804232      6.90497423      0.94731908
    H     11.29864015      4.35294366      6.90507274      0.94732815
    H     17.81810042      7.96114588      1.80129365      0.94732570
    H     11.43449977      8.77166987     10.19644605      0.94734319
    H     17.68332448     12.53662250      4.87149380      0.94731744
    H     12.54382187      5.80423836      1.80230453      0.94733044
    H     12.67801834     13.25518361      6.90567663      0.94732774
    H     16.57457746      3.63390916      4.87104769      0.94734495
    H     16.43812950     10.92862542     10.19592105      0.94731969
    H     12.54388094      3.63393272      4.87154976      0.94733078
    H     12.67808065     10.92914241     10.19523740      0.94732797
    H     16.57451915      5.80367364      1.80249545      0.94734518
    H     16.43806716     13.25564310      6.90505144      0.94732008
    H      9.41906896      7.60850376      6.90514937      0.94732897
    H     15.80366023     11.45039565      1.80134301      0.94732647
    H     13.31359504      5.51684950     10.19640057      0.94734389
    H     19.69861674      9.04598239      4.87141423      0.94731836
    H     11.29856822      7.96112120      1.80233209      0.94732860
    H     17.81817503      4.35192547      6.90552253      0.94732598
    H     11.43441980     12.53717284      4.87120033      0.94734341
    H     17.68340101      8.77170758     10.19589483      0.94731786
    H     21.83746131     12.60788296      3.23727292      0.61549299
    H     26.47416562     15.28498124     10.80821081      0.61541845
    H     17.20153448     15.28472488     10.80795038      0.61549314
    H     21.83757130      7.25469599     10.80784202      0.61549304
    C      8.48556260      8.72380558      5.32109910      4.03780839
    C     15.25076712      4.97976900     10.96008582      4.03782385
    C     13.86653308     11.99387009      1.04217561      4.03778771
    C     20.63210784      7.92424682      6.45093079      4.03781324
    C     11.10573444      3.38640463      6.45110336      4.03781836
    C     18.01160625      7.21083987      1.04160860      4.03784015
    C     11.24655195      9.51881883     10.96064786      4.03780261
    C     17.87064607     13.50636764      5.32094222      4.03782623
    C     11.79768100      6.01229773      1.04238287      4.03781603
    C     11.93789423     13.90592407      6.45149875      4.03783064
    C     17.32025746      2.98637939      5.32074268      4.03779536
    C     17.17871207     10.71732670     10.96037259      4.03782495
    C     11.79774144      2.98683276      5.32102887      4.03781069
    C     11.93795953     10.71784417     10.96015400      4.03782288
    C     17.32019785      6.01181479      1.04210155      4.03778759
    C     17.17864659     13.90593517      6.45100655      4.03781855
    C      8.48557865      7.92472475      6.45117172      4.03781371
    C     15.25062184     11.99313241      1.04166596      4.03783205
    C     13.86667844      4.98050699     10.96059596      4.03779503
    C     20.63209179      8.72331913      5.32086927      4.03781858
    C     11.10566459      7.21092915      1.04239892      4.03781981
    C     18.01167721      3.38558481      6.45135509      4.03783888
    C     11.24647492     13.50671921      5.32088612      4.03780145
    C     17.87072146      9.51870632     10.96035693      4.03782870
    C      4.36889082      0.03662603      0.02590735      3.41148549
    C      7.27929984      6.68869497      8.29421467      3.41157281
    C      7.27923603     10.04941358      3.54143188      3.41157293
    C     10.19008894      0.03584732      0.02541063      3.41151925
    C      2.21619711      3.76528180      0.02593526      3.41148714
    C     12.34256689      1.27930380      3.54135327      3.41157651
    C      9.43214583      2.95978438      8.29416906      3.41157623
    C      5.12614397      8.80699450      0.02550723      3.41152087
    C      2.21623070      1.27956050      3.54130894      3.41148933
    C      9.43205737      8.80636938      0.02581154      3.41157936
    C     12.34252559      3.76520701      0.02575684      3.41157956
    C      5.12623784      2.95970611      8.29482140      3.41152305
    C      7.27934190      9.13207862      4.75278218      4.02885427
    C      8.67144517      0.07618001      0.05391438      4.02884319
    C      5.88749342      0.07734914      0.05471711      4.02885654
    C      7.27937564      7.52498639      7.02555808      4.02885446
    C     10.15643783      2.54169566      7.02550609      4.02885033
    C      4.40174283      7.47163994      0.05399095      4.02884040
    C      3.01076999      5.06007414      0.05475982      4.02885399
    C     11.54819000      1.73807749      4.75271417      4.02884982
    C     11.54814085      5.06021708      0.05449612      4.02884676
    C      4.40181784      2.54144902      7.02634442      4.02883804
    C      3.01081826      1.73832534      4.75244341      4.02885169
    C     10.15636320      7.47089937      0.05453090      4.02884715
    O      8.39930509     10.40079065      3.10764053      6.53616749
    O     18.02627785      4.85571665     10.97755595      6.53620592
    O     11.09111012     11.96867212      0.91917625      6.53619307
    O     20.71803710      6.39654647      8.76976239      6.53623024
    O      9.73946348      4.07575176      8.77003435      6.53619420
    O     19.37782162      9.62697254      0.91889092      6.53620769
    O      9.75113936      7.17737943     10.97783317      6.53620025
    O     19.36587778     12.74218997      3.10762918      6.53624600
    O     13.20687025      3.62099357      0.91923309      6.53617609
    O     13.21826057     14.74432575      8.77034216      6.53620922
    O     15.91069551      2.07339225      3.10749586      6.53619553
    O     15.89863316     13.18299265     10.97777101      6.53622498
    O     13.20690390      2.07359988      3.10755513      6.53616653
    O     13.21829457     13.18353688     10.97765985      6.53620940
    O     15.91066031      3.62082063      0.91907226      6.53619546
    O     15.89859986     14.74424799      8.76984509      6.53621912
    O      8.39938678      6.39684831      8.77007988      6.53617456
    O     18.02614086     11.96823333      0.91891292      6.53620415
    O     11.09124641      4.85616240     10.97781090      6.53619388
    O     20.71795542     10.40030392      3.10758328      6.53623700
    O      9.73936708      9.62701659      0.91932188      6.53619295
    O     19.37791972      4.07526041      8.77020815      6.53621206
    O      9.75104189     12.74244773      3.10762802      6.53620493
    O     19.36597359      7.17725058     10.97768263      6.53624113
    O     16.42860871     15.73148410     11.12386193      6.66913759
    O     21.83801296      6.36194443     11.12375780      6.66913781
    O     21.83790725     12.60814498      2.29027338      6.66913792
    O     27.24735020     15.73136889     11.12384528      6.66919794
    O     13.00586302      0.89643867      0.63394784      6.71088173
    O      7.27934492     10.81525452      0.63406279      6.71088175
    O      7.27946133      4.20288621      9.98538855      6.71088177
    O      1.55311711      0.89668712      0.63404935      6.71092289
   Zr      8.93163105     11.65458662      1.34911825      2.37018989
   Zr     20.18590345      5.15640890     10.53826902      2.37009753
   Zr      8.93174023      5.15682437     10.53836536      2.37019412
   Zr     20.18579453     11.65429509      1.34884655      2.37010140
   Zr     14.55889609      1.90769720      1.34901138      2.37018504
   Zr     14.55853174     14.90348320     10.53837537      2.37009337