|===============================================================================
|
|  DFTB+ release 24.1
|
|  Copyright (C) 2006 - 2024  DFTB+ developers group
|
|===============================================================================
|
|  When publishing results obtained with DFTB+, please cite the following
|  reference:
|
|  * DFTB+, a software package for efficient approximate density functional
|    theory based atomistic simulations, J. Chem. Phys. 152, 124101 (2020).
|    [doi: 10.1063/1.5143190]
|
|  You should also cite additional publications crediting the parametrization
|  data you use. Please consult the documentation of the SK-files for the
|  references.
|
|===============================================================================

Reading input file 'dftb_in.hsd'
Parser version: 14

--------------------------------------------------------------------------------
Reading SK-files:
/project/design-lab/software/DFTB+/3ob-3-1/O-O.skf
/project/design-lab/software/DFTB+/3ob-3-1/O-N.skf
/project/design-lab/software/DFTB+/3ob-3-1/O-C.skf
/project/design-lab/software/DFTB+/3ob-3-1/O-H.skf
/project/design-lab/software/DFTB+/3ob-3-1/N-N.skf
/project/design-lab/software/DFTB+/3ob-3-1/N-C.skf
/project/design-lab/software/DFTB+/3ob-3-1/N-H.skf
/project/design-lab/software/DFTB+/3ob-3-1/C-C.skf
/project/design-lab/software/DFTB+/3ob-3-1/C-H.skf
/project/design-lab/software/DFTB+/3ob-3-1/H-H.skf
Done.
WARNING!
-> This driver is deprecated and will be removed in future versions.
Please use the GeometryOptimisation driver instead.
Path: dftbplusinput/Driver/ConjugateGradient
Line: 6-14 (File: dftb_in.hsd)



Processed input in HSD format written to 'dftb_pin.hsd'

Starting initialization...
--------------------------------------------------------------------------------
WARNING!
-> Dipole printed for extended system : value printed is not well defined
MPI processes:               8
OpenMP threads:              1
BLACS orbital grid size:     2 x 4
BLACS atom grid size:        2 x 3
Chosen random seed:          1926436431
Current stacksize:           unlimited
Mode:                        Conjugate gradient relaxation
Self consistent charges:     Yes
SCC-tolerance:                 0.100000E-04
Max. scc iterations:                   1000
Shell resolved Hubbard:      No
Spin polarisation:           No
Nr. of up electrons:           117.000000
Nr. of down electrons:         117.000000
Periodic boundaries:         Yes
Lattice optimisation:        Yes
Pressure:                        0.000000
Electronic solver:           Relatively robust
Mixer:                       Broyden mixer
Mixing parameter:                  0.200000
Maximal SCC-cycles:                    1000
Nr. of chrg. vec. in memory:           1000
Nr. of moved atoms:                      72
Max. nr. of geometry steps:          100000
Force tolerance:               0.100000E-03
Electronic temperature:              0.100000E-07 H      0.272114E-06 eV
Initial charges:             Set automatically (system chrg:   0.000E+00)
Included shells:             O:  s, p
                             N:  s, p
                             C:  s, p
                             H:  s
K-points and weights:           1:  0.125000  0.125000  0.125000     0.031250
                                2:  0.125000  0.125000  0.375000     0.031250
                                3:  0.125000  0.125000  0.625000     0.031250
                                4:  0.125000  0.125000  0.875000     0.031250
                                5:  0.125000  0.375000  0.125000     0.031250
                                6:  0.125000  0.375000  0.375000     0.031250
                                7:  0.125000  0.375000  0.625000     0.031250
                                8:  0.125000  0.375000  0.875000     0.031250
                                9:  0.125000  0.625000  0.125000     0.031250
                               10:  0.125000  0.625000  0.375000     0.031250
                               11:  0.125000  0.625000  0.625000     0.031250
                               12:  0.125000  0.625000  0.875000     0.031250
                               13:  0.125000  0.875000  0.125000     0.031250
                               14:  0.125000  0.875000  0.375000     0.031250
                               15:  0.125000  0.875000  0.625000     0.031250
                               16:  0.125000  0.875000  0.875000     0.031250
                               17:  0.375000  0.125000  0.125000     0.031250
                               18:  0.375000  0.125000  0.375000     0.031250
                               19:  0.375000  0.125000  0.625000     0.031250
                               20:  0.375000  0.125000  0.875000     0.031250
                               21:  0.375000  0.375000  0.125000     0.031250
                               22:  0.375000  0.375000  0.375000     0.031250
                               23:  0.375000  0.375000  0.625000     0.031250
                               24:  0.375000  0.375000  0.875000     0.031250
                               25:  0.375000  0.625000  0.125000     0.031250
                               26:  0.375000  0.625000  0.375000     0.031250
                               27:  0.375000  0.625000  0.625000     0.031250
                               28:  0.375000  0.625000  0.875000     0.031250
                               29:  0.375000  0.875000  0.125000     0.031250
                               30:  0.375000  0.875000  0.375000     0.031250
                               31:  0.375000  0.875000  0.625000     0.031250
                               32:  0.375000  0.875000  0.875000     0.031250

K-points in absolute space:     1:  0.002933  0.005079  0.019455
                                2:  0.002933  0.005079  0.058365
                                3:  0.002933  0.005079  0.097275
                                4:  0.002933  0.005079  0.136185
                                5:  0.002933  0.011852  0.019455
                                6:  0.002933  0.011852  0.058365
                                7:  0.002933  0.011852  0.097275
                                8:  0.002933  0.011852  0.136185
                                9:  0.002933  0.018624  0.019455
                               10:  0.002933  0.018624  0.058365
                               11:  0.002933  0.018624  0.097275
                               12:  0.002933  0.018624  0.136185
                               13:  0.002933  0.025397  0.019455
                               14:  0.002933  0.025397  0.058365
                               15:  0.002933  0.025397  0.097275
                               16:  0.002933  0.025397  0.136185
                               17:  0.008798  0.008466  0.019455
                               18:  0.008798  0.008466  0.058365
                               19:  0.008798  0.008466  0.097275
                               20:  0.008798  0.008466  0.136185
                               21:  0.008798  0.015238  0.019455
                               22:  0.008798  0.015238  0.058365
                               23:  0.008798  0.015238  0.097275
                               24:  0.008798  0.015238  0.136185
                               25:  0.008798  0.022011  0.019455
                               26:  0.008798  0.022011  0.058365
                               27:  0.008798  0.022011  0.097275
                               28:  0.008798  0.022011  0.136185
                               29:  0.008798  0.028783  0.019455
                               30:  0.008798  0.028783  0.058365
                               31:  0.008798  0.028783  0.097275
                               32:  0.008798  0.028783  0.136185

Using Lennard-Jones dispersion corrections
Full 3rd order correction    Yes
Damped SCC                   Yes
Damped species(s):           H                                                 
Extra options:
                             Mulliken analysis
Force type                   original

--------------------------------------------------------------------------------

***  Geometry step: 0, Lattice step: 0

 iSCC Total electronic   Diff electronic      SCC error    
    1    0.00000000E+00    0.00000000E+00    0.93722960E+00
    2   -0.10649712E+03   -0.10649712E+03    0.62175759E+00
    3   -0.10662675E+03   -0.12962861E+00    0.13088642E+00
    4   -0.10668684E+03   -0.60092823E-01    0.56884045E-01
    5   -0.10669437E+03   -0.75273437E-02    0.14587393E-01
    6   -0.10669452E+03   -0.14821943E-03    0.48967022E-02
    7   -0.10669458E+03   -0.68414021E-04    0.12978415E-02
    8   -0.10669460E+03   -0.19905557E-04    0.65592611E-03
    9   -0.10669461E+03   -0.84719065E-06    0.18462735E-03
   10   -0.10669461E+03   -0.20303314E-06    0.52956878E-04
   11   -0.10669461E+03   -0.97838750E-08    0.11796903E-04
   12   -0.10669461E+03   -0.10371082E-08    0.19803225E-05

Total Energy:                     -104.5120216891 H        -2843.9168 eV
Extrapolated to 0K:               -104.5120216891 H        -2843.9168 eV
Total Mermin free energy:         -104.5120216891 H        -2843.9168 eV
Force related energy:             -104.5120216891 H        -2843.9168 eV

Volume:                              0.101095E+05 au^3   0.149808E+04 A^3
Pressure:                            0.376572E-04 au     0.110791E+10 Pa
Maximal force component:             0.504791E-01
Averaged force norm:                 0.247035E-01
Maximal Lattice force component:     0.321034E-01 au
Averaged lattice force norm:         0.205883E-01 au
>> Charges saved for restart in charges.bin

--------------------------------------------------------------------------------

***  Geometry step: 1, Lattice step: 0

 iSCC Total electronic   Diff electronic      SCC error    
    1   -0.10669461E+03    0.00000000E+00    0.20332587E+00
    2   -0.10681900E+03   -0.12438974E+00    0.11828525E+00
    3   -0.10683377E+03   -0.14775633E-01    0.30295124E-01
    4   -0.10683889E+03   -0.51189069E-02    0.10377079E-01
    5   -0.10683914E+03   -0.24606332E-03    0.16120151E-02
    6   -0.10683915E+03   -0.11295511E-04    0.51250911E-03
    7   -0.10683915E+03   -0.15369319E-05    0.12326049E-03
    8   -0.10683915E+03   -0.10950052E-06    0.54689551E-04
    9   -0.10683915E+03   -0.51325060E-08    0.14350975E-04
   10   -0.10683915E+03   -0.14686918E-09    0.11630981E-05

Total Energy:                     -104.3245027264 H        -2838.8142 eV
Extrapolated to 0K:               -104.3245027264 H        -2838.8142 eV
Total Mermin free energy:         -104.3245027264 H        -2838.8142 eV
Force related energy:             -104.3245027264 H        -2838.8142 eV

Volume:                              0.101095E+05 au^3   0.149808E+04 A^3
Pressure:                            0.889417E-04 au     0.261675E+10 Pa
Maximal force component:             0.170323E+00
Averaged force norm:                 0.806023E-01
Maximal Lattice force component:     0.294396E-01 au
Averaged lattice force norm:         0.294288E-01 au
>> Charges saved for restart in charges.bin

--------------------------------------------------------------------------------

***  Geometry step: 2, Lattice step: 0

 iSCC Total electronic   Diff electronic      SCC error    
    1   -0.10683915E+03    0.00000000E+00    0.15064815E+00
    2   -0.10671542E+03    0.12373285E+00    0.86761066E-01
    3   -0.10672563E+03   -0.10213925E-01    0.20256287E-01
    4   -0.10672888E+03   -0.32473719E-02    0.75773587E-02
    5   -0.10672903E+03   -0.14951454E-03    0.12448381E-02
    6   -0.10672904E+03   -0.83977522E-05    0.48122487E-03
    7   -0.10672904E+03   -0.28280293E-06    0.13104114E-03
    8   -0.10672904E+03   -0.22145923E-06    0.27510003E-04
    9   -0.10672904E+03   -0.45038604E-08    0.13734422E-04
   10   -0.10672904E+03   -0.84838803E-10    0.27368610E-05

Total Energy:                     -104.5309377508 H        -2844.4315 eV
Extrapolated to 0K:               -104.5309377508 H        -2844.4315 eV
Total Mermin free energy:         -104.5309377508 H        -2844.4315 eV
Force related energy:             -104.5309377508 H        -2844.4315 eV

Volume:                              0.101095E+05 au^3   0.149808E+04 A^3
Pressure:                            0.384836E-04 au     0.113223E+10 Pa
Maximal force component:             0.122461E-01
Averaged force norm:                 0.711006E-02
Maximal Lattice force component:     0.313585E-01 au
Averaged lattice force norm:         0.203305E-01 au
>> Charges saved for restart in charges.bin

--------------------------------------------------------------------------------

***  Geometry step: 3, Lattice step: 0

 iSCC Total electronic   Diff electronic      SCC error    
    1   -0.10672904E+03    0.00000000E+00    0.27285382E-01
    2   -0.10675772E+03   -0.28687932E-01    0.12045988E-01
    3   -0.10675980E+03   -0.20719495E-02    0.68486765E-02
    4   -0.10675996E+03   -0.16574098E-03    0.16464869E-02
    5   -0.10675998E+03   -0.17228459E-04    0.23704592E-03
    6   -0.10675998E+03   -0.49023457E-06    0.11940280E-03
    7   -0.10675998E+03   -0.12638694E-07    0.25565544E-04
    8   -0.10675998E+03   -0.95150341E-08    0.26362217E-05

Total Energy:                     -104.5229814265 H        -2844.2150 eV
Extrapolated to 0K:               -104.5229814265 H        -2844.2150 eV
Total Mermin free energy:         -104.5229814265 H        -2844.2150 eV
Force related energy:             -104.5229814265 H        -2844.2150 eV

Volume:                              0.101095E+05 au^3   0.149808E+04 A^3
Pressure:                            0.438048E-04 au     0.128878E+10 Pa
Maximal force component:             0.336882E-01
Averaged force norm:                 0.171686E-01
Maximal Lattice force component:     0.308474E-01 au
Averaged lattice force norm:         0.208421E-01 au
>> Charges saved for restart in charges.bin

--------------------------------------------------------------------------------

***  Geometry step: 4, Lattice step: 0

 iSCC Total electronic   Diff electronic      SCC error    
    1   -0.10675998E+03    0.00000000E+00    0.19833355E-01
    2   -0.10673564E+03    0.24334847E-01    0.86988631E-02
    3   -0.10673673E+03   -0.10893651E-02    0.49803535E-02
    4   -0.10673682E+03   -0.87534521E-04    0.12172023E-02
    5   -0.10673683E+03   -0.90045207E-05    0.15653989E-03
    6   -0.10673683E+03   -0.29277365E-06    0.80176720E-04
    7   -0.10673683E+03   -0.54695306E-08    0.17678660E-04
    8   -0.10673683E+03   -0.40996468E-08    0.20372784E-05

Total Energy:                     -104.5321867197 H        -2844.4655 eV
Extrapolated to 0K:               -104.5321867197 H        -2844.4655 eV
Total Mermin free energy:         -104.5321867197 H        -2844.4655 eV
Force related energy:             -104.5321867197 H        -2844.4655 eV

Volume:                              0.101095E+05 au^3   0.149808E+04 A^3
Pressure:                            0.393064E-04 au     0.115643E+10 Pa
Maximal force component:             0.113012E-01
Averaged force norm:                 0.458961E-02
Maximal Lattice force component:     0.312114E-01 au
Averaged lattice force norm:         0.203694E-01 au
>> Charges saved for restart in charges.bin

--------------------------------------------------------------------------------

***  Geometry step: 5, Lattice step: 0

 iSCC Total electronic   Diff electronic      SCC error    
    1   -0.10673683E+03    0.00000000E+00    0.13989915E-01
    2   -0.10673153E+03    0.53017264E-02    0.76838772E-02
    3   -0.10673165E+03   -0.12553726E-03    0.22093105E-02
    4   -0.10673168E+03   -0.24218438E-04    0.66347865E-03
    5   -0.10673168E+03   -0.19792357E-05    0.67371668E-04
    6   -0.10673168E+03   -0.11266491E-06    0.37713353E-04
    7   -0.10673168E+03   -0.11959145E-08    0.17310109E-04
    8   -0.10673168E+03   -0.60425975E-09    0.12353125E-05

Total Energy:                     -104.5329067909 H        -2844.4851 eV
Extrapolated to 0K:               -104.5329067909 H        -2844.4851 eV
Total Mermin free energy:         -104.5329067909 H        -2844.4851 eV
Force related energy:             -104.5329067909 H        -2844.4851 eV

Volume:                              0.101095E+05 au^3   0.149808E+04 A^3
Pressure:                            0.392139E-04 au     0.115371E+10 Pa
Maximal force component:             0.526961E-02
Averaged force norm:                 0.319831E-02
Maximal Lattice force component:     0.314773E-01 au
Averaged lattice force norm:         0.204853E-01 au
>> Charges saved for restart in charges.bin

--------------------------------------------------------------------------------

***  Geometry step: 6, Lattice step: 0

 iSCC Total electronic   Diff electronic      SCC error    
    1   -0.10673168E+03    0.00000000E+00    0.35761498E-02
    2   -0.10673300E+03   -0.13201943E-02    0.19695472E-02
    3   -0.10673301E+03   -0.80728979E-05    0.57077946E-03
    4   -0.10673301E+03   -0.15739694E-05    0.17229273E-03
    5   -0.10673301E+03   -0.12758795E-06    0.15552719E-04
    6   -0.10673301E+03   -0.74340960E-08    0.70339245E-05

Total Energy:                     -104.5330045126 H        -2844.4878 eV
Extrapolated to 0K:               -104.5330045126 H        -2844.4878 eV
Total Mermin free energy:         -104.5330045126 H        -2844.4878 eV
Force related energy:             -104.5330045126 H        -2844.4878 eV

Volume:                              0.101095E+05 au^3   0.149808E+04 A^3
Pressure:                            0.391941E-04 au     0.115313E+10 Pa
Maximal force component:             0.391298E-02
Averaged force norm:                 0.206001E-02
Maximal Lattice force component:     0.314088E-01 au
Averaged lattice force norm:         0.204495E-01 au
>> Charges saved for restart in charges.bin

--------------------------------------------------------------------------------

***  Geometry step: 7, Lattice step: 0

 iSCC Total electronic   Diff electronic      SCC error    
    1   -0.10673301E+03    0.00000000E+00    0.26357221E-02
    2   -0.10673446E+03   -0.14534583E-02    0.15875803E-02
    3   -0.10673447E+03   -0.73156444E-05    0.55249944E-03
    4   -0.10673447E+03   -0.14719937E-05    0.25603152E-03
    5   -0.10673447E+03   -0.10358768E-06    0.20473274E-04
    6   -0.10673447E+03   -0.17172397E-07    0.82921567E-05

Total Energy:                     -104.5334245629 H        -2844.4992 eV
Extrapolated to 0K:               -104.5334245629 H        -2844.4992 eV
Total Mermin free energy:         -104.5334245629 H        -2844.4992 eV
Force related energy:             -104.5334245629 H        -2844.4992 eV

Volume:                              0.101095E+05 au^3   0.149808E+04 A^3
Pressure:                            0.402438E-04 au     0.118401E+10 Pa
Maximal force component:             0.363289E-02
Averaged force norm:                 0.196815E-02
Maximal Lattice force component:     0.314753E-01 au
Averaged lattice force norm:         0.206241E-01 au
>> Charges saved for restart in charges.bin

--------------------------------------------------------------------------------

***  Geometry step: 8, Lattice step: 0

 iSCC Total electronic   Diff electronic      SCC error    
    1   -0.10673447E+03    0.00000000E+00    0.42425293E-02
    2   -0.10673646E+03   -0.19914969E-02    0.25574520E-02
    3   -0.10673648E+03   -0.19105564E-04    0.89469009E-03
    4   -0.10673649E+03   -0.38328636E-05    0.41389834E-03
    5   -0.10673649E+03   -0.26927825E-06    0.33924212E-04
    6   -0.10673649E+03   -0.45430426E-07    0.16269955E-04
    7   -0.10673649E+03   -0.85471186E-09    0.10564815E-04
    8   -0.10673649E+03   -0.86558316E-10    0.35808031E-06

Total Energy:                     -104.5330324141 H        -2844.4885 eV
Extrapolated to 0K:               -104.5330324141 H        -2844.4885 eV
Total Mermin free energy:         -104.5330324141 H        -2844.4885 eV
Force related energy:             -104.5330324141 H        -2844.4885 eV

Volume:                              0.101095E+05 au^3   0.149808E+04 A^3
Pressure:                            0.421201E-04 au     0.123922E+10 Pa
Maximal force component:             0.113480E-01
Averaged force norm:                 0.538280E-02
Maximal Lattice force component:     0.315833E-01 au
Averaged lattice force norm:         0.209384E-01 au
>> Charges saved for restart in charges.bin

--------------------------------------------------------------------------------

***  Geometry step: 9, Lattice step: 0

 iSCC Total electronic   Diff electronic      SCC error    
    1   -0.10673649E+03    0.00000000E+00    0.33843074E-02
    2   -0.10673491E+03    0.15827620E-02    0.20374446E-02
    3   -0.10673492E+03   -0.12103088E-04    0.70926994E-03
    4   -0.10673492E+03   -0.24420185E-05    0.32929560E-03
    5   -0.10673492E+03   -0.17103595E-06    0.26303049E-04
    6   -0.10673492E+03   -0.28730582E-07    0.11796970E-04
    7   -0.10673492E+03   -0.50758331E-09    0.82998406E-05

Total Energy:                     -104.5334523883 H        -2844.5000 eV
Extrapolated to 0K:               -104.5334523883 H        -2844.5000 eV
Total Mermin free energy:         -104.5334523883 H        -2844.5000 eV
Force related energy:             -104.5334523883 H        -2844.5000 eV

Volume:                              0.101095E+05 au^3   0.149808E+04 A^3
Pressure:                            0.406089E-04 au     0.119475E+10 Pa
Maximal force component:             0.519352E-02
Averaged force norm:                 0.252950E-02
Maximal Lattice force component:     0.314974E-01 au
Averaged lattice force norm:         0.206850E-01 au
>> Charges saved for restart in charges.bin

--------------------------------------------------------------------------------

***  Geometry step: 10, Lattice step: 0

 iSCC Total electronic   Diff electronic      SCC error    
    1   -0.10673492E+03    0.00000000E+00    0.20779071E-02
    2   -0.10674550E+03   -0.10580546E-01    0.11257265E-02
    3   -0.10674550E+03   -0.29597482E-05    0.52595892E-03
    4   -0.10674550E+03   -0.59526083E-06    0.18777528E-03
    5   -0.10674550E+03   -0.58724680E-07    0.11715101E-04
    6   -0.10674550E+03   -0.13377871E-07    0.55277436E-05

Total Energy:                     -104.5339475569 H        -2844.5134 eV
Extrapolated to 0K:               -104.5339475569 H        -2844.5134 eV
Total Mermin free energy:         -104.5339475569 H        -2844.5134 eV
Force related energy:             -104.5339475569 H        -2844.5134 eV

Volume:                              0.101095E+05 au^3   0.149808E+04 A^3
Pressure:                            0.431545E-04 au     0.126965E+10 Pa
Maximal force component:             0.242453E-02
Averaged force norm:                 0.163935E-02
Maximal Lattice force component:     0.315146E-01 au
Averaged lattice force norm:         0.210555E-01 au
>> Charges saved for restart in charges.bin

--------------------------------------------------------------------------------

***  Geometry step: 11, Lattice step: 0

 iSCC Total electronic   Diff electronic      SCC error    
    1   -0.10674550E+03    0.00000000E+00    0.33834235E-02
    2   -0.10676222E+03   -0.16717848E-01    0.18359597E-02
    3   -0.10676223E+03   -0.79306800E-05    0.85317929E-03
    4   -0.10676223E+03   -0.15995337E-05    0.30582803E-03
    5   -0.10676223E+03   -0.15845347E-06    0.20090126E-04
    6   -0.10676223E+03   -0.34965538E-07    0.11745191E-04
    7   -0.10676223E+03   -0.14837553E-09    0.33996848E-05

Total Energy:                     -104.5337968280 H        -2844.5093 eV
Extrapolated to 0K:               -104.5337968280 H        -2844.5093 eV
Total Mermin free energy:         -104.5337968280 H        -2844.5093 eV
Force related energy:             -104.5337968280 H        -2844.5093 eV

Volume:                              0.101095E+05 au^3   0.149808E+04 A^3
Pressure:                            0.474039E-04 au     0.139467E+10 Pa
Maximal force component:             0.587338E-02
Averaged force norm:                 0.388453E-02
Maximal Lattice force component:     0.315407E-01 au
Averaged lattice force norm:         0.217147E-01 au
>> Charges saved for restart in charges.bin

--------------------------------------------------------------------------------

***  Geometry step: 12, Lattice step: 0

 iSCC Total electronic   Diff electronic      SCC error    
    1   -0.10676223E+03    0.00000000E+00    0.21390232E-02
    2   -0.10675178E+03    0.10455012E-01    0.11582648E-02
    3   -0.10675178E+03   -0.31575783E-05    0.53803481E-03
    4   -0.10675178E+03   -0.63264470E-06    0.19173893E-03
    5   -0.10675178E+03   -0.62610837E-07    0.12458603E-04
    6   -0.10675178E+03   -0.13834580E-07    0.58089988E-05

Total Energy:                     -104.5340290914 H        -2844.5157 eV
Extrapolated to 0K:               -104.5340290914 H        -2844.5157 eV
Total Mermin free energy:         -104.5340290914 H        -2844.5157 eV
Force related energy:             -104.5340290914 H        -2844.5157 eV

Volume:                              0.101095E+05 au^3   0.149808E+04 A^3
Pressure:                            0.447157E-04 au     0.131558E+10 Pa
Maximal force component:             0.338670E-02
Averaged force norm:                 0.214941E-02
Maximal Lattice force component:     0.315246E-01 au
Averaged lattice force norm:         0.212920E-01 au
>> Charges saved for restart in charges.bin

--------------------------------------------------------------------------------

***  Geometry step: 13, Lattice step: 0

 iSCC Total electronic   Diff electronic      SCC error    
    1   -0.10675178E+03    0.00000000E+00    0.73644264E-02
    2   -0.10675919E+03   -0.74101064E-02    0.42252695E-02
    3   -0.10675922E+03   -0.31489946E-04    0.12820978E-02
    4   -0.10675923E+03   -0.42927343E-05    0.42312269E-03
    5   -0.10675923E+03   -0.65869436E-06    0.76981975E-04
    6   -0.10675923E+03   -0.56058283E-07    0.32404391E-04
    7   -0.10675923E+03   -0.53870508E-09    0.44047658E-05

Total Energy:                     -104.5343066597 H        -2844.5232 eV
Extrapolated to 0K:               -104.5343066597 H        -2844.5232 eV
Total Mermin free energy:         -104.5343066597 H        -2844.5232 eV
Force related energy:             -104.5343066597 H        -2844.5232 eV

Volume:                              0.101095E+05 au^3   0.149808E+04 A^3
Pressure:                            0.453225E-04 au     0.133343E+10 Pa
Maximal force component:             0.500526E-02
Averaged force norm:                 0.263282E-02
Maximal Lattice force component:     0.315976E-01 au
Averaged lattice force norm:         0.214175E-01 au
>> Charges saved for restart in charges.bin

--------------------------------------------------------------------------------

***  Geometry step: 14, Lattice step: 0

 iSCC Total electronic   Diff electronic      SCC error    
    1   -0.10675923E+03    0.00000000E+00    0.21415360E-02
    2   -0.10675711E+03    0.21210796E-02    0.12279248E-02
    3   -0.10675711E+03   -0.26658645E-05    0.37504552E-03
    4   -0.10675711E+03   -0.36094200E-06    0.12354216E-03
    5   -0.10675711E+03   -0.55453924E-07    0.21648881E-04
    6   -0.10675711E+03   -0.47266155E-08    0.33526950E-05

Total Energy:                     -104.5343624728 H        -2844.5247 eV
Extrapolated to 0K:               -104.5343624728 H        -2844.5247 eV
Total Mermin free energy:         -104.5343624728 H        -2844.5247 eV
Force related energy:             -104.5343624728 H        -2844.5247 eV

Volume:                              0.101095E+05 au^3   0.149808E+04 A^3
Pressure:                            0.451313E-04 au     0.132781E+10 Pa
Maximal force component:             0.286205E-02
Averaged force norm:                 0.175688E-02
Maximal Lattice force component:     0.315765E-01 au
Averaged lattice force norm:         0.213787E-01 au
>> Charges saved for restart in charges.bin

--------------------------------------------------------------------------------

***  Geometry step: 15, Lattice step: 0

 iSCC Total electronic   Diff electronic      SCC error    
    1   -0.10675711E+03    0.00000000E+00    0.17263449E-02
    2   -0.10674755E+03    0.95584496E-02    0.13354861E-02
    3   -0.10674755E+03   -0.68304664E-06    0.46373911E-03
    4   -0.10674755E+03   -0.34751898E-06    0.10041179E-03
    5   -0.10674755E+03   -0.37931287E-07    0.32813202E-04
    6   -0.10674755E+03   -0.79160287E-08    0.88546083E-05

Total Energy:                     -104.5346849156 H        -2844.5335 eV
Extrapolated to 0K:               -104.5346849156 H        -2844.5335 eV
Total Mermin free energy:         -104.5346849156 H        -2844.5335 eV
Force related energy:             -104.5346849156 H        -2844.5335 eV

Volume:                              0.101095E+05 au^3   0.149808E+04 A^3
Pressure:                            0.429090E-04 au     0.126243E+10 Pa
Maximal force component:             0.251724E-02
Averaged force norm:                 0.150497E-02
Maximal Lattice force component:     0.315810E-01 au
Averaged lattice force norm:         0.210509E-01 au
>> Charges saved for restart in charges.bin

--------------------------------------------------------------------------------

***  Geometry step: 16, Lattice step: 0

 iSCC Total electronic   Diff electronic      SCC error    
    1   -0.10674755E+03    0.00000000E+00    0.28017697E-02
    2   -0.10673137E+03    0.16178917E-01    0.21662078E-02
    3   -0.10673137E+03   -0.16980232E-05    0.74230820E-03
    4   -0.10673138E+03   -0.88404394E-06    0.14873409E-03
    5   -0.10673138E+03   -0.10644840E-06    0.51959547E-04
    6   -0.10673138E+03   -0.15209181E-07    0.16544317E-04
    7   -0.10673138E+03   -0.31194247E-09    0.75581028E-05

Total Energy:                     -104.5342687626 H        -2844.5222 eV
Extrapolated to 0K:               -104.5342687626 H        -2844.5222 eV
Total Mermin free energy:         -104.5342687626 H        -2844.5222 eV
Force related energy:             -104.5342687626 H        -2844.5222 eV

Volume:                              0.101095E+05 au^3   0.149808E+04 A^3
Pressure:                            0.393829E-04 au     0.115868E+10 Pa
Maximal force component:             0.799101E-02
Averaged force norm:                 0.432281E-02
Maximal Lattice force component:     0.315885E-01 au
Averaged lattice force norm:         0.205617E-01 au
>> Charges saved for restart in charges.bin

--------------------------------------------------------------------------------

***  Geometry step: 17, Lattice step: 0

 iSCC Total electronic   Diff electronic      SCC error    
    1   -0.10673138E+03    0.00000000E+00    0.24072630E-02
    2   -0.10674533E+03   -0.13950237E-01    0.18584872E-02
    3   -0.10674533E+03   -0.12303837E-05    0.62876955E-03
    4   -0.10674533E+03   -0.65448842E-06    0.11685687E-03
    5   -0.10674533E+03   -0.80843080E-07    0.44730078E-04
    6   -0.10674533E+03   -0.84702094E-08    0.13349069E-04
    7   -0.10674533E+03   -0.21525182E-09    0.62901401E-05

Total Energy:                     -104.5346963580 H        -2844.5338 eV
Extrapolated to 0K:               -104.5346963580 H        -2844.5338 eV
Total Mermin free energy:         -104.5346963580 H        -2844.5338 eV
Force related energy:             -104.5346963580 H        -2844.5338 eV

Volume:                              0.101095E+05 au^3   0.149808E+04 A^3
Pressure:                            0.424068E-04 au     0.124765E+10 Pa
Maximal force component:             0.328735E-02
Averaged force norm:                 0.180442E-02
Maximal Lattice force component:     0.315822E-01 au
Averaged lattice force norm:         0.209789E-01 au
>> Charges saved for restart in charges.bin

--------------------------------------------------------------------------------

***  Geometry step: 18, Lattice step: 0

 iSCC Total electronic   Diff electronic      SCC error    
    1   -0.10674533E+03    0.00000000E+00    0.67192447E-02
    2   -0.10675141E+03   -0.60785930E-02    0.35894537E-02
    3   -0.10675143E+03   -0.23838430E-04    0.14631915E-02
    4   -0.10675143E+03   -0.16123934E-05    0.34421752E-03
    5   -0.10675143E+03   -0.43716041E-06    0.59592280E-04
    6   -0.10675143E+03   -0.35768664E-07    0.28258956E-04
    7   -0.10675143E+03   -0.41376325E-09    0.43079281E-05

Total Energy:                     -104.5347472058 H        -2844.5352 eV
Extrapolated to 0K:               -104.5347472058 H        -2844.5352 eV
Total Mermin free energy:         -104.5347472058 H        -2844.5352 eV
Force related energy:             -104.5347472058 H        -2844.5352 eV

Volume:                              0.101095E+05 au^3   0.149808E+04 A^3
Pressure:                            0.435624E-04 au     0.128165E+10 Pa
Maximal force component:             0.421512E-02
Averaged force norm:                 0.238069E-02
Maximal Lattice force component:     0.315677E-01 au
Averaged lattice force norm:         0.211401E-01 au
>> Charges saved for restart in charges.bin

--------------------------------------------------------------------------------

***  Geometry step: 19, Lattice step: 0

 iSCC Total electronic   Diff electronic      SCC error    
    1   -0.10675143E+03    0.00000000E+00    0.30449396E-02
    2   -0.10674870E+03    0.27295743E-02    0.16257420E-02
    3   -0.10674871E+03   -0.49236856E-05    0.66410716E-03
    4   -0.10674871E+03   -0.32922225E-06    0.15539361E-03
    5   -0.10674871E+03   -0.88586631E-07    0.27304963E-04
    6   -0.10674871E+03   -0.74239495E-08    0.70901664E-05

Total Energy:                     -104.5348561340 H        -2844.5382 eV
Extrapolated to 0K:               -104.5348561340 H        -2844.5382 eV
Total Mermin free energy:         -104.5348561340 H        -2844.5382 eV
Force related energy:             -104.5348561340 H        -2844.5382 eV

Volume:                              0.101095E+05 au^3   0.149808E+04 A^3
Pressure:                            0.430245E-04 au     0.126582E+10 Pa
Maximal force component:             0.168350E-02
Averaged force norm:                 0.101262E-02
Maximal Lattice force component:     0.315742E-01 au
Averaged lattice force norm:         0.210645E-01 au
>> Charges saved for restart in charges.bin

--------------------------------------------------------------------------------

***  Geometry step: 20, Lattice step: 0

 iSCC Total electronic   Diff electronic      SCC error    
    1   -0.10674871E+03    0.00000000E+00    0.27199322E-02
    2   -0.10675063E+03   -0.19226965E-02    0.17897516E-02
    3   -0.10675064E+03   -0.70778819E-05    0.57531368E-03
    4   -0.10675064E+03   -0.12414008E-05    0.18926123E-03
    5   -0.10675064E+03   -0.10687162E-06    0.27806935E-04
    6   -0.10675064E+03   -0.77090903E-08    0.53943693E-05

Total Energy:                     -104.5349392139 H        -2844.5404 eV
Extrapolated to 0K:               -104.5349392139 H        -2844.5404 eV
Total Mermin free energy:         -104.5349392139 H        -2844.5404 eV
Force related energy:             -104.5349392139 H        -2844.5404 eV

Volume:                              0.101095E+05 au^3   0.149808E+04 A^3
Pressure:                            0.428801E-04 au     0.126158E+10 Pa
Maximal force component:             0.297896E-02
Averaged force norm:                 0.128552E-02
Maximal Lattice force component:     0.315084E-01 au
Averaged lattice force norm:         0.210126E-01 au
>> Charges saved for restart in charges.bin

--------------------------------------------------------------------------------

***  Geometry step: 21, Lattice step: 0

 iSCC Total electronic   Diff electronic      SCC error    
    1   -0.10675064E+03    0.00000000E+00    0.64827758E-03
    2   -0.10675019E+03    0.45140451E-03    0.42647500E-03
    3   -0.10675019E+03   -0.40854367E-06    0.13776485E-03
    4   -0.10675019E+03   -0.71031764E-07    0.44703739E-04
    5   -0.10675019E+03   -0.62051697E-08    0.66720479E-05

Total Energy:                     -104.5349483009 H        -2844.5407 eV
Extrapolated to 0K:               -104.5349483009 H        -2844.5407 eV
Total Mermin free energy:         -104.5349483009 H        -2844.5407 eV
Force related energy:             -104.5349483009 H        -2844.5407 eV

Volume:                              0.101095E+05 au^3   0.149808E+04 A^3
Pressure:                            0.429094E-04 au     0.126244E+10 Pa
Maximal force component:             0.214677E-02
Averaged force norm:                 0.946683E-03
Maximal Lattice force component:     0.315241E-01 au
Averaged lattice force norm:         0.210242E-01 au
>> Charges saved for restart in charges.bin

--------------------------------------------------------------------------------

***  Geometry step: 22, Lattice step: 0

 iSCC Total electronic   Diff electronic      SCC error    
    1   -0.10675019E+03    0.00000000E+00    0.19160670E-02
    2   -0.10674883E+03    0.13557564E-02    0.10364034E-02
    3   -0.10674884E+03   -0.42239909E-05    0.64609961E-03
    4   -0.10674884E+03   -0.30400093E-06    0.11025729E-03
    5   -0.10674884E+03   -0.54602310E-07    0.14283570E-04
    6   -0.10674884E+03   -0.55972009E-08    0.38389396E-05

Total Energy:                     -104.5350061214 H        -2844.5422 eV
Extrapolated to 0K:               -104.5350061214 H        -2844.5422 eV
Total Mermin free energy:         -104.5350061214 H        -2844.5422 eV
Force related energy:             -104.5350061214 H        -2844.5422 eV

Volume:                              0.101095E+05 au^3   0.149808E+04 A^3
Pressure:                            0.423618E-04 au     0.124633E+10 Pa
Maximal force component:             0.172835E-02
Averaged force norm:                 0.926989E-03
Maximal Lattice force component:     0.315481E-01 au
Averaged lattice force norm:         0.209564E-01 au
>> Charges saved for restart in charges.bin

--------------------------------------------------------------------------------

***  Geometry step: 23, Lattice step: 0

 iSCC Total electronic   Diff electronic      SCC error    
    1   -0.10674884E+03    0.00000000E+00    0.36134060E-03
    2   -0.10674910E+03   -0.26107761E-03    0.19630602E-03
    3   -0.10674910E+03   -0.14731374E-06    0.12136393E-03
    4   -0.10674910E+03   -0.10602932E-07    0.20105365E-04
    5   -0.10674910E+03   -0.19412738E-08    0.26002123E-05

Total Energy:                     -104.5350093574 H        -2844.5423 eV
Extrapolated to 0K:               -104.5350093574 H        -2844.5423 eV
Total Mermin free energy:         -104.5350093574 H        -2844.5423 eV
Force related energy:             -104.5350093574 H        -2844.5423 eV

Volume:                              0.101095E+05 au^3   0.149808E+04 A^3
Pressure:                            0.424655E-04 au     0.124938E+10 Pa
Maximal force component:             0.125892E-02
Averaged force norm:                 0.733156E-03
Maximal Lattice force component:     0.315436E-01 au
Averaged lattice force norm:         0.209692E-01 au
>> Charges saved for restart in charges.bin

--------------------------------------------------------------------------------

***  Geometry step: 24, Lattice step: 0

 iSCC Total electronic   Diff electronic      SCC error    
    1   -0.10674910E+03    0.00000000E+00    0.77545040E-03
    2   -0.10675127E+03   -0.21752799E-02    0.57927621E-03
    3   -0.10675127E+03   -0.51627129E-06    0.17270281E-03
    4   -0.10675127E+03   -0.16480858E-06    0.75076173E-04
    5   -0.10675127E+03   -0.12126080E-07    0.76908014E-05

Total Energy:                     -104.5350689110 H        -2844.5440 eV
Extrapolated to 0K:               -104.5350689110 H        -2844.5440 eV
Total Mermin free energy:         -104.5350689110 H        -2844.5440 eV
Force related energy:             -104.5350689110 H        -2844.5440 eV

Volume:                              0.101095E+05 au^3   0.149808E+04 A^3
Pressure:                            0.433196E-04 au     0.127450E+10 Pa
Maximal force component:             0.144050E-02
Averaged force norm:                 0.690758E-03
Maximal Lattice force component:     0.315538E-01 au
Averaged lattice force norm:         0.210980E-01 au
>> Charges saved for restart in charges.bin

--------------------------------------------------------------------------------

***  Geometry step: 25, Lattice step: 0

 iSCC Total electronic   Diff electronic      SCC error    
    1   -0.10675127E+03    0.00000000E+00    0.12493247E-02
    2   -0.10675475E+03   -0.34747263E-02    0.93402569E-03
    3   -0.10675475E+03   -0.13527441E-05    0.28124683E-03
    4   -0.10675475E+03   -0.43468167E-06    0.12161576E-03
    5   -0.10675475E+03   -0.32043886E-07    0.12729794E-04
    6   -0.10675475E+03   -0.33409577E-08    0.47996540E-05

Total Energy:                     -104.5350012679 H        -2844.5421 eV
Extrapolated to 0K:               -104.5350012679 H        -2844.5421 eV
Total Mermin free energy:         -104.5350012679 H        -2844.5421 eV
Force related energy:             -104.5350012679 H        -2844.5421 eV

Volume:                              0.101095E+05 au^3   0.149808E+04 A^3
Pressure:                            0.447284E-04 au     0.131595E+10 Pa
Maximal force component:             0.330907E-02
Averaged force norm:                 0.192767E-02
Maximal Lattice force component:     0.315700E-01 au
Averaged lattice force norm:         0.213148E-01 au
>> Charges saved for restart in charges.bin

--------------------------------------------------------------------------------

***  Geometry step: 26, Lattice step: 0

 iSCC Total electronic   Diff electronic      SCC error    
    1   -0.10675475E+03    0.00000000E+00    0.10495760E-02
    2   -0.10675186E+03    0.28954548E-02    0.78421874E-03
    3   -0.10675186E+03   -0.93918989E-06    0.23325695E-03
    4   -0.10675186E+03   -0.30063778E-06    0.10136491E-03
    5   -0.10675186E+03   -0.22029980E-07    0.10376517E-04
    6   -0.10675186E+03   -0.23195241E-08    0.40603475E-05

Total Energy:                     -104.5350717147 H        -2844.5440 eV
Extrapolated to 0K:               -104.5350717147 H        -2844.5440 eV
Total Mermin free energy:         -104.5350717147 H        -2844.5440 eV
Force related energy:             -104.5350717147 H        -2844.5440 eV

Volume:                              0.101095E+05 au^3   0.149808E+04 A^3
Pressure:                            0.435532E-04 au     0.128138E+10 Pa
Maximal force component:             0.159162E-02
Averaged force norm:                 0.854409E-03
Maximal Lattice force component:     0.315564E-01 au
Averaged lattice force norm:         0.211335E-01 au
>> Charges saved for restart in charges.bin

--------------------------------------------------------------------------------

***  Geometry step: 27, Lattice step: 0

 iSCC Total electronic   Diff electronic      SCC error    
    1   -0.10675186E+03    0.00000000E+00    0.11008230E-02
    2   -0.10675724E+03   -0.53790715E-02    0.72114898E-03
    3   -0.10675724E+03   -0.14401234E-05    0.34444546E-03
    4   -0.10675724E+03   -0.25158141E-06    0.10024136E-03
    5   -0.10675724E+03   -0.27478151E-07    0.19537732E-04
    6   -0.10675724E+03   -0.24857059E-08    0.26975113E-05

Total Energy:                     -104.5351547553 H        -2844.5463 eV
Extrapolated to 0K:               -104.5351547553 H        -2844.5463 eV
Total Mermin free energy:         -104.5351547553 H        -2844.5463 eV
Force related energy:             -104.5351547553 H        -2844.5463 eV

Volume:                              0.101095E+05 au^3   0.149808E+04 A^3
Pressure:                            0.448582E-04 au     0.131977E+10 Pa
Maximal force component:             0.124697E-02
Averaged force norm:                 0.803437E-03
Maximal Lattice force component:     0.315246E-01 au
Averaged lattice force norm:         0.213135E-01 au
>> Charges saved for restart in charges.bin

--------------------------------------------------------------------------------

***  Geometry step: 28, Lattice step: 0

 iSCC Total electronic   Diff electronic      SCC error    
    1   -0.10675724E+03    0.00000000E+00    0.17894026E-02
    2   -0.10676589E+03   -0.86535493E-02    0.11728904E-02
    3   -0.10676589E+03   -0.37588902E-05    0.55633931E-03
    4   -0.10676590E+03   -0.66145036E-06    0.16188046E-03
    5   -0.10676590E+03   -0.72253613E-07    0.31910429E-04
    6   -0.10676590E+03   -0.64752470E-08    0.48830201E-05

Total Energy:                     -104.5351699177 H        -2844.5467 eV
Extrapolated to 0K:               -104.5351699177 H        -2844.5467 eV
Total Mermin free energy:         -104.5351699177 H        -2844.5467 eV
Force related energy:             -104.5351699177 H        -2844.5467 eV

Volume:                              0.101095E+05 au^3   0.149808E+04 A^3
Pressure:                            0.469764E-04 au     0.138209E+10 Pa
Maximal force component:             0.286737E-02
Averaged force norm:                 0.181887E-02
Maximal Lattice force component:     0.314732E-01 au
Averaged lattice force norm:         0.216168E-01 au
>> Charges saved for restart in charges.bin

--------------------------------------------------------------------------------

***  Geometry step: 29, Lattice step: 0

 iSCC Total electronic   Diff electronic      SCC error    
    1   -0.10676590E+03    0.00000000E+00    0.71170774E-03
    2   -0.10676246E+03    0.34333986E-02    0.46601230E-03
    3   -0.10676246E+03   -0.59267263E-06    0.22143634E-03
    4   -0.10676246E+03   -0.10476917E-06    0.64714595E-04
    5   -0.10676246E+03   -0.11405689E-07    0.12469311E-04
    6   -0.10676246E+03   -0.10197994E-08    0.15076482E-05

Total Energy:                     -104.5351815460 H        -2844.5470 eV
Extrapolated to 0K:               -104.5351815460 H        -2844.5470 eV
Total Mermin free energy:         -104.5351815460 H        -2844.5470 eV
Force related energy:             -104.5351815460 H        -2844.5470 eV

Volume:                              0.101095E+05 au^3   0.149808E+04 A^3
Pressure:                            0.461336E-04 au     0.135730E+10 Pa
Maximal force component:             0.219130E-02
Averaged force norm:                 0.135385E-02
Maximal Lattice force component:     0.314936E-01 au
Averaged lattice force norm:         0.214945E-01 au
>> Charges saved for restart in charges.bin

--------------------------------------------------------------------------------

***  Geometry step: 30, Lattice step: 0

 iSCC Total electronic   Diff electronic      SCC error    
    1   -0.10676246E+03    0.00000000E+00    0.23204755E-02
    2   -0.10676401E+03   -0.15478709E-02    0.14573193E-02
    3   -0.10676401E+03   -0.30245812E-05    0.45390015E-03
    4   -0.10676401E+03   -0.10186489E-05    0.17861187E-03
    5   -0.10676401E+03   -0.46985136E-07    0.31733131E-04
    6   -0.10676401E+03   -0.97493711E-08    0.59135422E-05

Total Energy:                     -104.5353191554 H        -2844.5508 eV
Extrapolated to 0K:               -104.5353191554 H        -2844.5508 eV
Total Mermin free energy:         -104.5353191554 H        -2844.5508 eV
Force related energy:             -104.5353191554 H        -2844.5508 eV

Volume:                              0.101095E+05 au^3   0.149808E+04 A^3
Pressure:                            0.467419E-04 au     0.137519E+10 Pa
Maximal force component:             0.157566E-02
Averaged force norm:                 0.809176E-03
Maximal Lattice force component:     0.315508E-01 au
Averaged lattice force norm:         0.216151E-01 au
>> Charges saved for restart in charges.bin

--------------------------------------------------------------------------------

***  Geometry step: 31, Lattice step: 0

 iSCC Total electronic   Diff electronic      SCC error    
    1   -0.10676401E+03    0.00000000E+00    0.37607387E-02
    2   -0.10676619E+03   -0.21767720E-02    0.23604993E-02
    3   -0.10676620E+03   -0.80014794E-05    0.74004015E-03
    4   -0.10676620E+03   -0.26730584E-05    0.29060454E-03
    5   -0.10676620E+03   -0.12347260E-06    0.51379000E-04
    6   -0.10676620E+03   -0.25699791E-07    0.10295020E-04
    7   -0.10676620E+03   -0.57389116E-09    0.54590369E-05

Total Energy:                     -104.5352312713 H        -2844.5484 eV
Extrapolated to 0K:               -104.5352312713 H        -2844.5484 eV
Total Mermin free energy:         -104.5352312713 H        -2844.5484 eV
Force related energy:             -104.5352312713 H        -2844.5484 eV

Volume:                              0.101095E+05 au^3   0.149808E+04 A^3
Pressure:                            0.477090E-04 au     0.140365E+10 Pa
Maximal force component:             0.380587E-02
Averaged force norm:                 0.214986E-02
Maximal Lattice force component:     0.316438E-01 au
Averaged lattice force norm:         0.218095E-01 au
>> Charges saved for restart in charges.bin

--------------------------------------------------------------------------------

***  Geometry step: 32, Lattice step: 0

 iSCC Total electronic   Diff electronic      SCC error    
    1   -0.10676620E+03    0.00000000E+00    0.27391164E-02
    2   -0.10676464E+03    0.15609433E-02    0.17190329E-02
    3   -0.10676465E+03   -0.42439961E-05    0.54195974E-03
    4   -0.10676465E+03   -0.14220559E-05    0.21028108E-03
    5   -0.10676465E+03   -0.65459275E-07    0.37201175E-04
    6   -0.10676465E+03   -0.13603412E-07    0.71098169E-05

Total Energy:                     -104.5353332451 H        -2844.5511 eV
Extrapolated to 0K:               -104.5353332451 H        -2844.5511 eV
Total Mermin free energy:         -104.5353332451 H        -2844.5511 eV
Force related energy:             -104.5353332451 H        -2844.5511 eV

Volume:                              0.101095E+05 au^3   0.149808E+04 A^3
Pressure:                            0.470067E-04 au     0.138299E+10 Pa
Maximal force component:             0.172676E-02
Averaged force norm:                 0.100621E-02
Maximal Lattice force component:     0.315760E-01 au
Averaged lattice force norm:         0.216680E-01 au
>> Charges saved for restart in charges.bin

--------------------------------------------------------------------------------

***  Geometry step: 33, Lattice step: 0

 iSCC Total electronic   Diff electronic      SCC error    
    1   -0.10676465E+03    0.00000000E+00    0.28683523E-02
    2   -0.10675909E+03    0.55566572E-02    0.17682790E-02
    3   -0.10675910E+03   -0.58578947E-05    0.50038389E-03
    4   -0.10675910E+03   -0.18781791E-05    0.26012402E-03
    5   -0.10675910E+03   -0.98882680E-07    0.49142648E-04
    6   -0.10675910E+03   -0.12973715E-07    0.84296887E-05

Total Energy:                     -104.5354948805 H        -2844.5555 eV
Extrapolated to 0K:               -104.5354948805 H        -2844.5555 eV
Total Mermin free energy:         -104.5354948805 H        -2844.5555 eV
Force related energy:             -104.5354948805 H        -2844.5555 eV

Volume:                              0.101095E+05 au^3   0.149808E+04 A^3
Pressure:                            0.463908E-04 au     0.136487E+10 Pa
Maximal force component:             0.281822E-02
Averaged force norm:                 0.143040E-02
Maximal Lattice force component:     0.316429E-01 au
Averaged lattice force norm:         0.216023E-01 au
>> Charges saved for restart in charges.bin

--------------------------------------------------------------------------------

***  Geometry step: 34, Lattice step: 0

 iSCC Total electronic   Diff electronic      SCC error    
    1   -0.10675910E+03    0.00000000E+00    0.46470294E-02
    2   -0.10674974E+03    0.93599802E-02    0.28633030E-02
    3   -0.10674975E+03   -0.15438458E-04    0.82123139E-03
    4   -0.10674976E+03   -0.49144660E-05    0.42203963E-03
    5   -0.10674976E+03   -0.26048384E-06    0.79672870E-04
    6   -0.10674976E+03   -0.34520028E-07    0.17673150E-04
    7   -0.10674976E+03   -0.13709922E-08    0.93622000E-05

Total Energy:                     -104.5352439738 H        -2844.5487 eV
Extrapolated to 0K:               -104.5352439738 H        -2844.5487 eV
Total Mermin free energy:         -104.5352439738 H        -2844.5487 eV
Force related energy:             -104.5352439738 H        -2844.5487 eV

Volume:                              0.101095E+05 au^3   0.149808E+04 A^3
Pressure:                            0.453888E-04 au     0.133538E+10 Pa
Maximal force component:             0.668459E-02
Averaged force norm:                 0.394690E-02
Maximal Lattice force component:     0.317521E-01 au
Averaged lattice force norm:         0.214986E-01 au
>> Charges saved for restart in charges.bin

--------------------------------------------------------------------------------

***  Geometry step: 35, Lattice step: 0

 iSCC Total electronic   Diff electronic      SCC error    
    1   -0.10674976E+03    0.00000000E+00    0.41538916E-02
    2   -0.10675812E+03   -0.83658009E-02    0.25607251E-02
    3   -0.10675814E+03   -0.12436453E-04    0.73162062E-03
    4   -0.10675814E+03   -0.39337096E-05    0.37982078E-03
    5   -0.10675814E+03   -0.20806706E-06    0.71414252E-04
    6   -0.10675814E+03   -0.27688941E-07    0.15780437E-04
    7   -0.10675814E+03   -0.10506938E-08    0.80043101E-05

Total Energy:                     -104.5354983882 H        -2844.5556 eV
Extrapolated to 0K:               -104.5354983882 H        -2844.5556 eV
Total Mermin free energy:         -104.5354983882 H        -2844.5556 eV
Force related energy:             -104.5354983882 H        -2844.5556 eV

Volume:                              0.101095E+05 au^3   0.149808E+04 A^3
Pressure:                            0.462844E-04 au     0.136173E+10 Pa
Maximal force component:             0.322050E-02
Averaged force norm:                 0.166473E-02
Maximal Lattice force component:     0.316543E-01 au
Averaged lattice force norm:         0.215911E-01 au
>> Charges saved for restart in charges.bin

--------------------------------------------------------------------------------

***  Geometry step: 36, Lattice step: 0

 iSCC Total electronic   Diff electronic      SCC error    
    1   -0.10675814E+03    0.00000000E+00    0.20454702E-02
    2   -0.10675827E+03   -0.12972721E-03    0.13404860E-02
    3   -0.10675828E+03   -0.46076942E-05    0.71355666E-03
    4   -0.10675828E+03   -0.84554887E-06    0.18691181E-03
    5   -0.10675828E+03   -0.89370374E-07    0.25049722E-04
    6   -0.10675828E+03   -0.91260546E-08    0.60683439E-05

Total Energy:                     -104.5357464527 H        -2844.5624 eV
Extrapolated to 0K:               -104.5357464527 H        -2844.5624 eV
Total Mermin free energy:         -104.5357464527 H        -2844.5624 eV
Force related energy:             -104.5357464527 H        -2844.5624 eV

Volume:                              0.101095E+05 au^3   0.149808E+04 A^3
Pressure:                            0.461766E-04 au     0.135856E+10 Pa
Maximal force component:             0.191359E-02
Averaged force norm:                 0.127630E-02
Maximal Lattice force component:     0.315833E-01 au
Averaged lattice force norm:         0.215420E-01 au
>> Charges saved for restart in charges.bin

--------------------------------------------------------------------------------

***  Geometry step: 37, Lattice step: 0

 iSCC Total electronic   Diff electronic      SCC error    
    1   -0.10675828E+03    0.00000000E+00    0.33586849E-02
    2   -0.10675783E+03    0.45127022E-03    0.21997546E-02
    3   -0.10675784E+03   -0.12142127E-04    0.11562207E-02
    4   -0.10675784E+03   -0.22568774E-05    0.30444140E-03
    5   -0.10675784E+03   -0.23716656E-06    0.41108834E-04
    6   -0.10675784E+03   -0.23932188E-07    0.12177472E-04
    7   -0.10675784E+03   -0.53201177E-09    0.48336947E-05

Total Energy:                     -104.5358288429 H        -2844.5646 eV
Extrapolated to 0K:               -104.5358288429 H        -2844.5646 eV
Total Mermin free energy:         -104.5358288429 H        -2844.5646 eV
Force related energy:             -104.5358288429 H        -2844.5646 eV

Volume:                              0.101095E+05 au^3   0.149808E+04 A^3
Pressure:                            0.458926E-04 au     0.135021E+10 Pa
Maximal force component:             0.409273E-02
Averaged force norm:                 0.241850E-02
Maximal Lattice force component:     0.314675E-01 au
Averaged lattice force norm:         0.214453E-01 au
>> Charges saved for restart in charges.bin

--------------------------------------------------------------------------------

***  Geometry step: 38, Lattice step: 0

 iSCC Total electronic   Diff electronic      SCC error    
    1   -0.10675784E+03    0.00000000E+00    0.98784392E-03
    2   -0.10675805E+03   -0.21062744E-03    0.64574154E-03
    3   -0.10675805E+03   -0.10475455E-05    0.33968704E-03
    4   -0.10675805E+03   -0.19633067E-06    0.90560066E-04
    5   -0.10675805E+03   -0.20299140E-07    0.11922599E-04
    6   -0.10675805E+03   -0.20646382E-08    0.20050104E-05

Total Energy:                     -104.5358457952 H        -2844.5651 eV
Extrapolated to 0K:               -104.5358457952 H        -2844.5651 eV
Total Mermin free energy:         -104.5358457952 H        -2844.5651 eV
Force related energy:             -104.5358457952 H        -2844.5651 eV

Volume:                              0.101095E+05 au^3   0.149808E+04 A^3
Pressure:                            0.459904E-04 au     0.135308E+10 Pa
Maximal force component:             0.328434E-02
Averaged force norm:                 0.195618E-02
Maximal Lattice force component:     0.315016E-01 au
Averaged lattice force norm:         0.214759E-01 au
>> Charges saved for restart in charges.bin

--------------------------------------------------------------------------------

***  Geometry step: 39, Lattice step: 0

 iSCC Total electronic   Diff electronic      SCC error    
    1   -0.10675805E+03    0.00000000E+00    0.38247101E-02
    2   -0.10674337E+03    0.14684347E-01    0.21153336E-02
    3   -0.10674339E+03   -0.22387466E-04    0.13507636E-02
    4   -0.10674339E+03   -0.28790351E-05    0.25270171E-03
    5   -0.10674339E+03   -0.54481778E-06    0.61661833E-04
    6   -0.10674339E+03   -0.21442901E-07    0.18488481E-04
    7   -0.10674339E+03   -0.69384498E-09    0.81090171E-05

Total Energy:                     -104.5360858020 H        -2844.5716 eV
Extrapolated to 0K:               -104.5360858020 H        -2844.5716 eV
Total Mermin free energy:         -104.5360858020 H        -2844.5716 eV
Force related energy:             -104.5360858020 H        -2844.5716 eV

Volume:                              0.101095E+05 au^3   0.149808E+04 A^3
Pressure:                            0.418308E-04 au     0.123070E+10 Pa
Maximal force component:             0.292225E-02
Averaged force norm:                 0.150276E-02
Maximal Lattice force component:     0.315555E-01 au
Averaged lattice force norm:         0.208840E-01 au
>> Charges saved for restart in charges.bin

--------------------------------------------------------------------------------

***  Geometry step: 40, Lattice step: 0

 iSCC Total electronic   Diff electronic      SCC error    
    1   -0.10674339E+03    0.00000000E+00    0.88916208E-03
    2   -0.10674689E+03   -0.35000939E-02    0.48466799E-03
    3   -0.10674689E+03   -0.12101976E-05    0.31516219E-03
    4   -0.10674689E+03   -0.15336197E-06    0.58647548E-04
    5   -0.10674689E+03   -0.29247062E-07    0.14131653E-04
    6   -0.10674689E+03   -0.11322925E-08    0.31282188E-05

Total Energy:                     -104.5361095429 H        -2844.5723 eV
Extrapolated to 0K:               -104.5361095429 H        -2844.5723 eV
Total Mermin free energy:         -104.5361095429 H        -2844.5723 eV
Force related energy:             -104.5361095429 H        -2844.5723 eV

Volume:                              0.101095E+05 au^3   0.149808E+04 A^3
Pressure:                            0.428052E-04 au     0.125937E+10 Pa
Maximal force component:             0.218047E-02
Averaged force norm:                 0.107522E-02
Maximal Lattice force component:     0.315433E-01 au
Averaged lattice force norm:         0.210181E-01 au
>> Charges saved for restart in charges.bin

--------------------------------------------------------------------------------

***  Geometry step: 41, Lattice step: 0

 iSCC Total electronic   Diff electronic      SCC error    
    1   -0.10674689E+03    0.00000000E+00    0.70391586E-02
    2   -0.10675096E+03   -0.40637477E-02    0.27666403E-02
    3   -0.10675103E+03   -0.74854132E-04    0.14394514E-02
    4   -0.10675104E+03   -0.36930666E-05    0.32066717E-03
    5   -0.10675104E+03   -0.20461539E-06    0.35796384E-04
    6   -0.10675104E+03   -0.65750086E-07    0.25029484E-04
    7   -0.10675104E+03   -0.12180124E-09    0.30487244E-05

Total Energy:                     -104.5359936473 H        -2844.5691 eV
Extrapolated to 0K:               -104.5359936473 H        -2844.5691 eV
Total Mermin free energy:         -104.5359936473 H        -2844.5691 eV
Force related energy:             -104.5359936473 H        -2844.5691 eV

Volume:                              0.101095E+05 au^3   0.149808E+04 A^3
Pressure:                            0.431754E-04 au     0.127026E+10 Pa
Maximal force component:             0.583852E-02
Averaged force norm:                 0.341613E-02
Maximal Lattice force component:     0.315335E-01 au
Averaged lattice force norm:         0.210674E-01 au
>> Charges saved for restart in charges.bin

--------------------------------------------------------------------------------

***  Geometry step: 42, Lattice step: 0

 iSCC Total electronic   Diff electronic      SCC error    
    1   -0.10675104E+03    0.00000000E+00    0.41636042E-02
    2   -0.10674867E+03    0.23702638E-02    0.16379261E-02
    3   -0.10674869E+03   -0.26314368E-04    0.85321271E-03
    4   -0.10674869E+03   -0.12994961E-05    0.19288439E-03
    5   -0.10674869E+03   -0.71857087E-07    0.22425925E-04
    6   -0.10674869E+03   -0.22742540E-07    0.12459068E-04
    7   -0.10674869E+03   -0.85307761E-10    0.18815784E-05

Total Energy:                     -104.5362163253 H        -2844.5752 eV
Extrapolated to 0K:               -104.5362163253 H        -2844.5752 eV
Total Mermin free energy:         -104.5362163253 H        -2844.5752 eV
Force related energy:             -104.5362163253 H        -2844.5752 eV

Volume:                              0.101095E+05 au^3   0.149808E+04 A^3
Pressure:                            0.429589E-04 au     0.126390E+10 Pa
Maximal force component:             0.207211E-02
Averaged force norm:                 0.124554E-02
Maximal Lattice force component:     0.315392E-01 au
Averaged lattice force norm:         0.210385E-01 au
>> Charges saved for restart in charges.bin

--------------------------------------------------------------------------------

***  Geometry step: 43, Lattice step: 0

 iSCC Total electronic   Diff electronic      SCC error    
    1   -0.10674869E+03    0.00000000E+00    0.19414093E-02
    2   -0.10674986E+03   -0.11606095E-02    0.12610055E-02
    3   -0.10674986E+03   -0.14063361E-05    0.21465380E-03
    4   -0.10674986E+03   -0.63166293E-06    0.73514918E-04
    5   -0.10674986E+03   -0.29216551E-07    0.17576802E-04
    6   -0.10674986E+03   -0.33706726E-08    0.47932426E-05

Total Energy:                     -104.5363337079 H        -2844.5784 eV
Extrapolated to 0K:               -104.5363337079 H        -2844.5784 eV
Total Mermin free energy:         -104.5363337079 H        -2844.5784 eV
Force related energy:             -104.5363337079 H        -2844.5784 eV

Volume:                              0.101095E+05 au^3   0.149808E+04 A^3
Pressure:                            0.432486E-04 au     0.127242E+10 Pa
Maximal force component:             0.161880E-02
Averaged force norm:                 0.977296E-03
Maximal Lattice force component:     0.314857E-01 au
Averaged lattice force norm:         0.210558E-01 au
>> Charges saved for restart in charges.bin

--------------------------------------------------------------------------------

***  Geometry step: 44, Lattice step: 0

 iSCC Total electronic   Diff electronic      SCC error    
    1   -0.10674986E+03    0.00000000E+00    0.31405058E-02
    2   -0.10675152E+03   -0.16649565E-02    0.20375230E-02
    3   -0.10675153E+03   -0.36520824E-05    0.34320951E-03
    4   -0.10675153E+03   -0.16548442E-05    0.11977075E-03
    5   -0.10675153E+03   -0.74460203E-07    0.27946836E-04
    6   -0.10675153E+03   -0.88763983E-08    0.69173861E-05

Total Energy:                     -104.5361451966 H        -2844.5732 eV
Extrapolated to 0K:               -104.5361451966 H        -2844.5732 eV
Total Mermin free energy:         -104.5361451966 H        -2844.5732 eV
Force related energy:             -104.5361451966 H        -2844.5732 eV

Volume:                              0.101095E+05 au^3   0.149808E+04 A^3
Pressure:                            0.437560E-04 au     0.128735E+10 Pa
Maximal force component:             0.594443E-02
Averaged force norm:                 0.299083E-02
Maximal Lattice force component:     0.314000E-01 au
Averaged lattice force norm:         0.210907E-01 au
>> Charges saved for restart in charges.bin

--------------------------------------------------------------------------------

***  Geometry step: 45, Lattice step: 0

 iSCC Total electronic   Diff electronic      SCC error    
    1   -0.10675153E+03    0.00000000E+00    0.28356588E-02
    2   -0.10675003E+03    0.15005872E-02    0.18394916E-02
    3   -0.10675003E+03   -0.29560253E-05    0.30837965E-03
    4   -0.10675003E+03   -0.13494647E-05    0.10753703E-03
    5   -0.10675003E+03   -0.60830061E-07    0.25469193E-04
    6   -0.10675003E+03   -0.71181034E-08    0.63376412E-05

Total Energy:                     -104.5363359363 H        -2844.5784 eV
Extrapolated to 0K:               -104.5363359363 H        -2844.5784 eV
Total Mermin free energy:         -104.5363359363 H        -2844.5784 eV
Force related energy:             -104.5363359363 H        -2844.5784 eV

Volume:                              0.101095E+05 au^3   0.149808E+04 A^3
Pressure:                            0.432965E-04 au     0.127383E+10 Pa
Maximal force component:             0.195833E-02
Averaged force norm:                 0.111477E-02
Maximal Lattice force component:     0.314772E-01 au
Averaged lattice force norm:         0.210588E-01 au
>> Charges saved for restart in charges.bin

--------------------------------------------------------------------------------

***  Geometry step: 46, Lattice step: 0

 iSCC Total electronic   Diff electronic      SCC error    
    1   -0.10675003E+03    0.00000000E+00    0.17571028E-02
    2   -0.10674891E+03    0.11232764E-02    0.73569637E-03
    3   -0.10674892E+03   -0.91167939E-05    0.48878855E-03
    4   -0.10674892E+03   -0.50685621E-06    0.11885571E-03
    5   -0.10674892E+03   -0.73132497E-07    0.25913212E-04
    6   -0.10674892E+03   -0.10135182E-08    0.45575281E-05

Total Energy:                     -104.5364768527 H        -2844.5823 eV
Extrapolated to 0K:               -104.5364768527 H        -2844.5823 eV
Total Mermin free energy:         -104.5364768527 H        -2844.5823 eV
Force related energy:             -104.5364768527 H        -2844.5823 eV

Volume:                              0.101095E+05 au^3   0.149808E+04 A^3
Pressure:                            0.431365E-04 au     0.126912E+10 Pa
Maximal force component:             0.207007E-02
Averaged force norm:                 0.853357E-03
Maximal Lattice force component:     0.314894E-01 au
Averaged lattice force norm:         0.210411E-01 au
>> Charges saved for restart in charges.bin

--------------------------------------------------------------------------------

***  Geometry step: 47, Lattice step: 0

 iSCC Total electronic   Diff electronic      SCC error    
    1   -0.10674892E+03    0.00000000E+00    0.28501607E-02
    2   -0.10674682E+03    0.20958038E-02    0.11707866E-02
    3   -0.10674685E+03   -0.23988688E-04    0.78149687E-03
    4   -0.10674685E+03   -0.13135545E-05    0.19272591E-03
    5   -0.10674685E+03   -0.18979289E-06    0.40454454E-04
    6   -0.10674685E+03   -0.25450220E-08    0.11866632E-04
    7   -0.10674685E+03   -0.72240880E-09    0.31505591E-05

Total Energy:                     -104.5363310621 H        -2844.5783 eV
Extrapolated to 0K:               -104.5363310621 H        -2844.5783 eV
Total Mermin free energy:         -104.5363310621 H        -2844.5783 eV
Force related energy:             -104.5363310621 H        -2844.5783 eV

Volume:                              0.101095E+05 au^3   0.149808E+04 A^3
Pressure:                            0.428335E-04 au     0.126020E+10 Pa
Maximal force component:             0.496583E-02
Averaged force norm:                 0.242270E-02
Maximal Lattice force component:     0.315082E-01 au
Averaged lattice force norm:         0.210057E-01 au
>> Charges saved for restart in charges.bin

--------------------------------------------------------------------------------

***  Geometry step: 48, Lattice step: 0

 iSCC Total electronic   Diff electronic      SCC error    
    1   -0.10674685E+03    0.00000000E+00    0.23326890E-02
    2   -0.10674854E+03   -0.16967817E-02    0.95291494E-03
    3   -0.10674856E+03   -0.15947195E-04    0.63690252E-03
    4   -0.10674856E+03   -0.87741822E-06    0.15648934E-03
    5   -0.10674856E+03   -0.12649923E-06    0.32540448E-04
    6   -0.10674856E+03   -0.16848816E-08    0.74226228E-05

Total Energy:                     -104.5364846648 H        -2844.5825 eV
Extrapolated to 0K:               -104.5364846648 H        -2844.5825 eV
Total Mermin free energy:         -104.5364846648 H        -2844.5825 eV
Force related energy:             -104.5364846648 H        -2844.5825 eV

Volume:                              0.101095E+05 au^3   0.149808E+04 A^3
Pressure:                            0.430887E-04 au     0.126771E+10 Pa
Maximal force component:             0.259160E-02
Averaged force norm:                 0.105869E-02
Maximal Lattice force component:     0.314928E-01 au
Averaged lattice force norm:         0.210357E-01 au
>> Charges saved for restart in charges.bin

--------------------------------------------------------------------------------

***  Geometry step: 49, Lattice step: 0

 iSCC Total electronic   Diff electronic      SCC error    
    1   -0.10674856E+03    0.00000000E+00    0.70334009E-02
    2   -0.10674504E+03    0.35257253E-02    0.39864862E-02
    3   -0.10674506E+03   -0.26403840E-04    0.12339888E-02
    4   -0.10674507E+03   -0.30559364E-05    0.27083362E-03
    5   -0.10674507E+03   -0.42265305E-06    0.56544290E-04
    6   -0.10674507E+03   -0.35615855E-07    0.29082952E-04
    7   -0.10674507E+03   -0.58331295E-09    0.83535349E-05

Total Energy:                     -104.5364314683 H        -2844.5810 eV
Extrapolated to 0K:               -104.5364314683 H        -2844.5810 eV
Total Mermin free energy:         -104.5364314683 H        -2844.5810 eV
Force related energy:             -104.5364314683 H        -2844.5810 eV

Volume:                              0.101095E+05 au^3   0.149808E+04 A^3
Pressure:                            0.429615E-04 au     0.126397E+10 Pa
Maximal force component:             0.439292E-02
Averaged force norm:                 0.239249E-02
Maximal Lattice force component:     0.314109E-01 au
Averaged lattice force norm:         0.209788E-01 au
>> Charges saved for restart in charges.bin

--------------------------------------------------------------------------------

***  Geometry step: 50, Lattice step: 0

 iSCC Total electronic   Diff electronic      SCC error    
    1   -0.10674507E+03    0.00000000E+00    0.40533681E-02
    2   -0.10674712E+03   -0.20495424E-02    0.23001767E-02
    3   -0.10674712E+03   -0.87725659E-05    0.71133001E-03
    4   -0.10674713E+03   -0.10178905E-05    0.15623708E-03
    5   -0.10674713E+03   -0.14115830E-06    0.32969796E-04
    6   -0.10674713E+03   -0.11966222E-07    0.13502705E-04
    7   -0.10674713E+03   -0.21125857E-09    0.46699598E-05

Total Energy:                     -104.5365442993 H        -2844.5841 eV
Extrapolated to 0K:               -104.5365442993 H        -2844.5841 eV
Total Mermin free energy:         -104.5365442993 H        -2844.5841 eV
Force related energy:             -104.5365442993 H        -2844.5841 eV

Volume:                              0.101095E+05 au^3   0.149808E+04 A^3
Pressure:                            0.430272E-04 au     0.126590E+10 Pa
Maximal force component:             0.131711E-02
Averaged force norm:                 0.807008E-03
Maximal Lattice force component:     0.314579E-01 au
Averaged lattice force norm:         0.210104E-01 au
>> Charges saved for restart in charges.bin

--------------------------------------------------------------------------------

***  Geometry step: 51, Lattice step: 0

 iSCC Total electronic   Diff electronic      SCC error    
    1   -0.10674713E+03    0.00000000E+00    0.70868425E-03
    2   -0.10674975E+03   -0.26298041E-02    0.46208629E-03
    3   -0.10674976E+03   -0.11174983E-06    0.98146770E-04
    4   -0.10674976E+03   -0.61418731E-07    0.36269305E-04
    5   -0.10674976E+03   -0.45898645E-08    0.11008430E-04
    6   -0.10674976E+03   -0.49362825E-09    0.68857417E-06

Total Energy:                     -104.5366176531 H        -2844.5861 eV
Extrapolated to 0K:               -104.5366176531 H        -2844.5861 eV
Total Mermin free energy:         -104.5366176531 H        -2844.5861 eV
Force related energy:             -104.5366176531 H        -2844.5861 eV

Volume:                              0.101095E+05 au^3   0.149808E+04 A^3
Pressure:                            0.438992E-04 au     0.129156E+10 Pa
Maximal force component:             0.158411E-02
Averaged force norm:                 0.701960E-03
Maximal Lattice force component:     0.314481E-01 au
Averaged lattice force norm:         0.211343E-01 au
>> Charges saved for restart in charges.bin

--------------------------------------------------------------------------------

***  Geometry step: 52, Lattice step: 0

 iSCC Total electronic   Diff electronic      SCC error    
    1   -0.10674976E+03    0.00000000E+00    0.11638759E-02
    2   -0.10675385E+03   -0.40949848E-02    0.76054796E-03
    3   -0.10675385E+03   -0.29005710E-06    0.15925634E-03
    4   -0.10675385E+03   -0.16365878E-06    0.57737056E-04
    5   -0.10675385E+03   -0.11641632E-07    0.17818353E-04
    6   -0.10675385E+03   -0.13219505E-08    0.14663583E-05

Total Energy:                     -104.5365731111 H        -2844.5849 eV
Extrapolated to 0K:               -104.5365731111 H        -2844.5849 eV
Total Mermin free energy:         -104.5365731111 H        -2844.5849 eV
Force related energy:             -104.5365731111 H        -2844.5849 eV

Volume:                              0.101095E+05 au^3   0.149808E+04 A^3
Pressure:                            0.453070E-04 au     0.133298E+10 Pa
Maximal force component:             0.388861E-02
Averaged force norm:                 0.183375E-02
Maximal Lattice force component:     0.314320E-01 au
Averaged lattice force norm:         0.213391E-01 au
>> Charges saved for restart in charges.bin

--------------------------------------------------------------------------------

***  Geometry step: 53, Lattice step: 0

 iSCC Total electronic   Diff electronic      SCC error    
    1   -0.10675385E+03    0.00000000E+00    0.84087551E-03
    2   -0.10675092E+03    0.29322475E-02    0.54950484E-03
    3   -0.10675092E+03   -0.15045978E-06    0.11474104E-03
    4   -0.10675092E+03   -0.84963276E-07    0.41634042E-04
    5   -0.10675092E+03   -0.60134511E-08    0.12898462E-04
    6   -0.10675092E+03   -0.68502004E-09    0.81360305E-06

Total Energy:                     -104.5366255457 H        -2844.5863 eV
Extrapolated to 0K:               -104.5366255457 H        -2844.5863 eV
Total Mermin free energy:         -104.5366255457 H        -2844.5863 eV
Force related energy:             -104.5366255457 H        -2844.5863 eV

Volume:                              0.101095E+05 au^3   0.149808E+04 A^3
Pressure:                            0.442925E-04 au     0.130313E+10 Pa
Maximal force component:             0.221318E-02
Averaged force norm:                 0.950163E-03
Maximal Lattice force component:     0.314436E-01 au
Averaged lattice force norm:         0.211909E-01 au
>> Charges saved for restart in charges.bin

--------------------------------------------------------------------------------

***  Geometry step: 54, Lattice step: 0

 iSCC Total electronic   Diff electronic      SCC error    
    1   -0.10675092E+03    0.00000000E+00    0.32202469E-02
    2   -0.10674827E+03    0.26512241E-02    0.17594598E-02
    3   -0.10674827E+03   -0.58148624E-05    0.63052978E-03
    4   -0.10674828E+03   -0.18665362E-05    0.19691554E-03
    5   -0.10674828E+03   -0.85762309E-07    0.42013454E-04
    6   -0.10674828E+03   -0.13195276E-07    0.62530588E-05

Total Energy:                     -104.5366741851 H        -2844.5876 eV
Extrapolated to 0K:               -104.5366741851 H        -2844.5876 eV
Total Mermin free energy:         -104.5366741851 H        -2844.5876 eV
Force related energy:             -104.5366741851 H        -2844.5876 eV

Volume:                              0.101095E+05 au^3   0.149808E+04 A^3
Pressure:                            0.438684E-04 au     0.129065E+10 Pa
Maximal force component:             0.152016E-02
Averaged force norm:                 0.814479E-03
Maximal Lattice force component:     0.314919E-01 au
Averaged lattice force norm:         0.211501E-01 au
>> Charges saved for restart in charges.bin

--------------------------------------------------------------------------------

***  Geometry step: 55, Lattice step: 0

 iSCC Total electronic   Diff electronic      SCC error    
    1   -0.10674828E+03    0.00000000E+00    0.88816757E-03
    2   -0.10674901E+03   -0.73458103E-03    0.48575553E-03
    3   -0.10674901E+03   -0.44004625E-06    0.17601414E-03
    4   -0.10674901E+03   -0.14019771E-06    0.53898002E-04
    5   -0.10674901E+03   -0.65511045E-08    0.11148756E-04
    6   -0.10674901E+03   -0.99907993E-09    0.12650505E-05

Total Energy:                     -104.5366824374 H        -2844.5879 eV
Extrapolated to 0K:               -104.5366824374 H        -2844.5879 eV
Total Mermin free energy:         -104.5366824374 H        -2844.5879 eV
Force related energy:             -104.5366824374 H        -2844.5879 eV

Volume:                              0.101095E+05 au^3   0.149808E+04 A^3
Pressure:                            0.439831E-04 au     0.129403E+10 Pa
Maximal force component:             0.859585E-03
Averaged force norm:                 0.527368E-03
Maximal Lattice force component:     0.314786E-01 au
Averaged lattice force norm:         0.211610E-01 au
>> Charges saved for restart in charges.bin

--------------------------------------------------------------------------------

***  Geometry step: 56, Lattice step: 0

 iSCC Total electronic   Diff electronic      SCC error    
    1   -0.10674901E+03    0.00000000E+00    0.91612742E-03
    2   -0.10674803E+03    0.97659811E-03    0.69011807E-03
    3   -0.10674803E+03   -0.91813821E-06    0.26215626E-03
    4   -0.10674803E+03   -0.29408029E-06    0.13009372E-03
    5   -0.10674803E+03   -0.89353591E-08    0.98296644E-05

Total Energy:                     -104.5367014528 H        -2844.5884 eV
Extrapolated to 0K:               -104.5367014528 H        -2844.5884 eV
[...]
Extrapolated to 0K:               -104.5478338590 H        -2844.8913 eV
Total Mermin free energy:         -104.5478338590 H        -2844.8913 eV
Force related energy:             -104.5478338590 H        -2844.8913 eV

Volume:                              0.107969E+05 au^3   0.159993E+04 A^3
Pressure:                           -0.140971E-06 au    -0.414751E+07 Pa
Maximal force component:             0.215097E-02
Averaged force norm:                 0.962966E-03
Maximal Lattice force component:     0.328094E-03 au
Averaged lattice force norm:         0.199903E-03 au
>> Charges saved for restart in charges.bin

--------------------------------------------------------------------------------

***  Geometry step: 623, Lattice step: 13

 iSCC Total electronic   Diff electronic      SCC error    
    1   -0.10666173E+03    0.00000000E+00    0.18474300E-02
    2   -0.10666981E+03   -0.80750637E-02    0.12027552E-02
    3   -0.10666981E+03   -0.20314897E-05    0.51328514E-03
    4   -0.10666981E+03   -0.52750555E-06    0.13799356E-03
    5   -0.10666981E+03   -0.42768008E-07    0.33019118E-04
    6   -0.10666981E+03   -0.60252887E-08    0.52048394E-05

Total Energy:                     -104.5478574793 H        -2844.8919 eV
Extrapolated to 0K:               -104.5478574793 H        -2844.8919 eV
Total Mermin free energy:         -104.5478574793 H        -2844.8919 eV
Force related energy:             -104.5478574793 H        -2844.8919 eV

Volume:                              0.107969E+05 au^3   0.159993E+04 A^3
Pressure:                            0.165100E-05 au     0.485740E+08 Pa
Maximal force component:             0.376709E-03
Averaged force norm:                 0.174124E-03
Maximal Lattice force component:     0.596608E-03 au
Averaged lattice force norm:         0.514956E-03 au
>> Charges saved for restart in charges.bin

--------------------------------------------------------------------------------

***  Geometry step: 624, Lattice step: 13

 iSCC Total electronic   Diff electronic      SCC error    
    1   -0.10666981E+03    0.00000000E+00    0.25353772E-03
    2   -0.10666854E+03    0.12683182E-02    0.16156600E-03
    3   -0.10666854E+03   -0.15704174E-07    0.54559953E-04
    4   -0.10666854E+03   -0.53971831E-08    0.16187770E-04
    5   -0.10666854E+03   -0.21496760E-09    0.17659349E-05

Total Energy:                     -104.5478600382 H        -2844.8920 eV
Extrapolated to 0K:               -104.5478600382 H        -2844.8920 eV
Total Mermin free energy:         -104.5478600382 H        -2844.8920 eV
Force related energy:             -104.5478600382 H        -2844.8920 eV

Volume:                              0.107969E+05 au^3   0.159993E+04 A^3
Pressure:                            0.129201E-05 au     0.380123E+08 Pa
Maximal force component:             0.177967E-03
Averaged force norm:                 0.112201E-03
Maximal Lattice force component:     0.462318E-03 au
Averaged lattice force norm:         0.411877E-03 au
>> Charges saved for restart in charges.bin

--------------------------------------------------------------------------------

***  Geometry step: 625, Lattice step: 13

 iSCC Total electronic   Diff electronic      SCC error    
    1   -0.10666854E+03    0.00000000E+00    0.41186418E-03
    2   -0.10666649E+03    0.20527436E-02    0.26249670E-03
    3   -0.10666649E+03   -0.41280032E-07    0.89277759E-04
    4   -0.10666649E+03   -0.14142785E-07    0.26637607E-04
    5   -0.10666649E+03   -0.55115379E-09    0.27426418E-05

Total Energy:                     -104.5478605466 H        -2844.8920 eV
Extrapolated to 0K:               -104.5478605466 H        -2844.8920 eV
Total Mermin free energy:         -104.5478605466 H        -2844.8920 eV
Force related energy:             -104.5478605466 H        -2844.8920 eV

Volume:                              0.107969E+05 au^3   0.159993E+04 A^3
Pressure:                            0.710647E-06 au     0.209080E+08 Pa
Maximal force component:             0.380281E-03
Averaged force norm:                 0.191189E-03
Maximal Lattice force component:     0.279199E-03 au
Averaged lattice force norm:         0.256803E-03 au
>> Charges saved for restart in charges.bin

--------------------------------------------------------------------------------

***  Geometry step: 626, Lattice step: 13

 iSCC Total electronic   Diff electronic      SCC error    
    1   -0.10666649E+03    0.00000000E+00    0.15971001E-03
    2   -0.10666729E+03   -0.79364215E-03    0.10189823E-03
    3   -0.10666729E+03   -0.61859424E-08    0.34629478E-04
    4   -0.10666729E+03   -0.21367015E-08    0.10313581E-04
    5   -0.10666729E+03   -0.83119289E-10    0.10676418E-05

Total Energy:                     -104.5478608822 H        -2844.8920 eV
Extrapolated to 0K:               -104.5478608822 H        -2844.8920 eV
Total Mermin free energy:         -104.5478608822 H        -2844.8920 eV
Force related energy:             -104.5478608822 H        -2844.8920 eV

Volume:                              0.107969E+05 au^3   0.159993E+04 A^3
Pressure:                            0.935029E-06 au     0.275095E+08 Pa
Maximal force component:             0.298295E-03
Averaged force norm:                 0.139934E-03
Maximal Lattice force component:     0.328777E-03 au
Averaged lattice force norm:         0.313836E-03 au
>> Charges saved for restart in charges.bin

--------------------------------------------------------------------------------

***  Geometry step: 627, Lattice step: 13

 iSCC Total electronic   Diff electronic      SCC error    
    1   -0.10666729E+03    0.00000000E+00    0.13199721E-02
    2   -0.10666515E+03    0.21323325E-02    0.70696135E-03
    3   -0.10666515E+03   -0.14728779E-05    0.23049014E-03
    4   -0.10666515E+03   -0.16102101E-06    0.57981708E-04
    5   -0.10666515E+03   -0.21421798E-07    0.74825434E-05

Total Energy:                     -104.5478574328 H        -2844.8919 eV
Extrapolated to 0K:               -104.5478574328 H        -2844.8919 eV
Total Mermin free energy:         -104.5478574328 H        -2844.8919 eV
Force related energy:             -104.5478574328 H        -2844.8919 eV

Volume:                              0.107969E+05 au^3   0.159993E+04 A^3
Pressure:                            0.412791E-06 au     0.121447E+08 Pa
Maximal force component:             0.937074E-03
Averaged force norm:                 0.372528E-03
Maximal Lattice force component:     0.260824E-03 au
Averaged lattice force norm:         0.186420E-03 au
>> Charges saved for restart in charges.bin

--------------------------------------------------------------------------------

***  Geometry step: 628, Lattice step: 13

 iSCC Total electronic   Diff electronic      SCC error    
    1   -0.10666515E+03    0.00000000E+00    0.93967723E-03
    2   -0.10666666E+03   -0.15087916E-02    0.50378194E-03
    3   -0.10666666E+03   -0.74073834E-06    0.16475449E-03
    4   -0.10666666E+03   -0.80988528E-07    0.40443684E-04
    5   -0.10666666E+03   -0.10863644E-07    0.53924328E-05

Total Energy:                     -104.5478615835 H        -2844.8921 eV
Extrapolated to 0K:               -104.5478615835 H        -2844.8921 eV
Total Mermin free energy:         -104.5478615835 H        -2844.8921 eV
Force related energy:             -104.5478615835 H        -2844.8921 eV

Volume:                              0.107969E+05 au^3   0.159993E+04 A^3
Pressure:                            0.781273E-06 au     0.229858E+08 Pa
Maximal force component:             0.929430E-04
Averaged force norm:                 0.436230E-04
Maximal Lattice force component:     0.275546E-03 au
Averaged lattice force norm:         0.272920E-03 au
>> Charges saved for restart in charges.bin

--------------------------------------------------------------------------------

***  Geometry step: 629, Lattice step: 13

 iSCC Total electronic   Diff electronic      SCC error    
    1   -0.10666666E+03    0.00000000E+00    0.53924328E-05

Total Energy:                     -104.5478615835 H        -2844.8921 eV
Extrapolated to 0K:               -104.5478615835 H        -2844.8921 eV
Total Mermin free energy:         -104.5478615835 H        -2844.8921 eV
Force related energy:             -104.5478615835 H        -2844.8921 eV

Volume:                              0.107969E+05 au^3   0.159993E+04 A^3
Pressure:                            0.781273E-06 au     0.229858E+08 Pa
Maximal force component:             0.929430E-04
Averaged force norm:                 0.436230E-04
Maximal Lattice force component:     0.275546E-03 au
Averaged lattice force norm:         0.272920E-03 au
>> Charges saved for restart in charges.bin

--------------------------------------------------------------------------------

***  Geometry step: 630, Lattice step: 14

 iSCC Total electronic   Diff electronic      SCC error    
    1   -0.10666666E+03    0.00000000E+00    0.23702918E-03
    2   -0.10666072E+03    0.59440148E-02    0.14513183E-03
    3   -0.10666072E+03   -0.12046385E-07    0.24765280E-04
    4   -0.10666072E+03   -0.46345434E-08    0.71128715E-05

Total Energy:                     -104.5478613027 H        -2844.8921 eV
Extrapolated to 0K:               -104.5478613027 H        -2844.8921 eV
Total Mermin free energy:         -104.5478613027 H        -2844.8921 eV
Force related energy:             -104.5478613027 H        -2844.8921 eV

Volume:                              0.108078E+05 au^3   0.160155E+04 A^3
Pressure:                           -0.945650E-06 au    -0.278220E+08 Pa
Maximal force component:             0.451627E-03
Averaged force norm:                 0.195587E-03
Maximal Lattice force component:     0.350842E-03 au
Averaged lattice force norm:         0.287993E-03 au
>> Charges saved for restart in charges.bin

--------------------------------------------------------------------------------

***  Geometry step: 631, Lattice step: 14

 iSCC Total electronic   Diff electronic      SCC error    
    1   -0.10666072E+03    0.00000000E+00    0.15887935E-02
    2   -0.10666924E+03   -0.85200219E-02    0.10677667E-02
    3   -0.10666924E+03   -0.72927251E-06    0.26935895E-03
    4   -0.10666924E+03   -0.37142745E-06    0.93078317E-04
    5   -0.10666924E+03   -0.16601533E-07    0.28917609E-04
    6   -0.10666924E+03   -0.33730032E-08    0.44531012E-05

Total Energy:                     -104.5478496771 H        -2844.8917 eV
Extrapolated to 0K:               -104.5478496771 H        -2844.8917 eV
Total Mermin free energy:         -104.5478496771 H        -2844.8917 eV
Force related energy:             -104.5478496771 H        -2844.8917 eV

Volume:                              0.108078E+05 au^3   0.160155E+04 A^3
Pressure:                            0.923015E-06 au     0.271560E+08 Pa
Maximal force component:             0.159995E-02
Averaged force norm:                 0.748821E-03
Maximal Lattice force component:     0.352653E-03 au
Averaged lattice force norm:         0.291785E-03 au
>> Charges saved for restart in charges.bin

--------------------------------------------------------------------------------

***  Geometry step: 632, Lattice step: 14

 iSCC Total electronic   Diff electronic      SCC error    
    1   -0.10666924E+03    0.00000000E+00    0.11592605E-02
    2   -0.10666303E+03    0.62163273E-02    0.78323007E-03
    3   -0.10666303E+03   -0.39051849E-06    0.19758160E-03
    4   -0.10666303E+03   -0.19885991E-06    0.67629095E-04
    5   -0.10666303E+03   -0.88193701E-08    0.21137708E-04
    6   -0.10666303E+03   -0.17709851E-08    0.30712765E-05

Total Energy:                     -104.5478631718 H        -2844.8921 eV
Extrapolated to 0K:               -104.5478631718 H        -2844.8921 eV
Total Mermin free energy:         -104.5478631718 H        -2844.8921 eV
Force related energy:             -104.5478631718 H        -2844.8921 eV

Volume:                              0.108078E+05 au^3   0.160155E+04 A^3
Pressure:                           -0.438860E-06 au    -0.129117E+08 Pa
Maximal force component:             0.322508E-03
Averaged force norm:                 0.143590E-03
Maximal Lattice force component:     0.160049E-03 au
Averaged lattice force norm:         0.135143E-03 au
>> Charges saved for restart in charges.bin

--------------------------------------------------------------------------------

***  Geometry step: 633, Lattice step: 14

 iSCC Total electronic   Diff electronic      SCC error    
    1   -0.10666303E+03    0.00000000E+00    0.22137833E-03
    2   -0.10666405E+03   -0.10209333E-02    0.14209808E-03
    3   -0.10666405E+03   -0.82718259E-08    0.45568076E-04
    4   -0.10666405E+03   -0.21891111E-08    0.12735803E-04
    5   -0.10666405E+03   -0.25357849E-09    0.13561502E-05

Total Energy:                     -104.5478647013 H        -2844.8921 eV
Extrapolated to 0K:               -104.5478647013 H        -2844.8921 eV
Total Mermin free energy:         -104.5478647013 H        -2844.8921 eV
Force related energy:             -104.5478647013 H        -2844.8921 eV

Volume:                              0.108078E+05 au^3   0.160155E+04 A^3
Pressure:                           -0.158968E-06 au    -0.467698E+07 Pa
Maximal force component:             0.139083E-03
Averaged force norm:                 0.809482E-04
Maximal Lattice force component:     0.575808E-04 au
Averaged lattice force norm:         0.559994E-04 au
>> Charges saved for restart in charges.bin

--------------------------------------------------------------------------------

***  Geometry step: 634, Lattice step: 14

 iSCC Total electronic   Diff electronic      SCC error    
    1   -0.10666405E+03    0.00000000E+00    0.35985816E-03
    2   -0.10666570E+03   -0.16511062E-02    0.23102769E-03
    3   -0.10666570E+03   -0.21761693E-07    0.74327536E-04
    4   -0.10666570E+03   -0.57268466E-08    0.20748446E-04
    5   -0.10666570E+03   -0.66620487E-09    0.21177959E-05

Total Energy:                     -104.5478642821 H        -2844.8921 eV
Extrapolated to 0K:               -104.5478642821 H        -2844.8921 eV
Total Mermin free energy:         -104.5478642821 H        -2844.8921 eV
Force related energy:             -104.5478642821 H        -2844.8921 eV

Volume:                              0.108078E+05 au^3   0.160155E+04 A^3
Pressure:                            0.294928E-06 au     0.867707E+07 Pa
Maximal force component:             0.390017E-03
Averaged force norm:                 0.181054E-03
Maximal Lattice force component:     0.114855E-03 au
Averaged lattice force norm:         0.988634E-04 au
>> Charges saved for restart in charges.bin

--------------------------------------------------------------------------------

***  Geometry step: 635, Lattice step: 14

 iSCC Total electronic   Diff electronic      SCC error    
    1   -0.10666570E+03    0.00000000E+00    0.22255172E-03
    2   -0.10666468E+03    0.10190185E-02    0.14286961E-03
    3   -0.10666468E+03   -0.83337142E-08    0.46058406E-04
    4   -0.10666468E+03   -0.21982913E-08    0.12870079E-04
    5   -0.10666468E+03   -0.25393376E-09    0.12966841E-05

Total Energy:                     -104.5478649635 H        -2844.8922 eV
Extrapolated to 0K:               -104.5478649635 H        -2844.8922 eV
Total Mermin free energy:         -104.5478649635 H        -2844.8922 eV
Force related energy:             -104.5478649635 H        -2844.8922 eV

Volume:                              0.108078E+05 au^3   0.160155E+04 A^3
Pressure:                            0.148055E-07 au     0.435592E+06 Pa
Maximal force component:             0.225948E-03
Averaged force norm:                 0.971389E-04
Maximal Lattice force component:     0.562874E-04 au
Averaged lattice force norm:         0.334897E-04 au
>> Charges saved for restart in charges.bin

--------------------------------------------------------------------------------

***  Geometry step: 636, Lattice step: 14

 iSCC Total electronic   Diff electronic      SCC error    
    1   -0.10666468E+03    0.00000000E+00    0.83193802E-03
    2   -0.10666569E+03   -0.10118026E-02    0.44941377E-03
    3   -0.10666569E+03   -0.79706297E-06    0.19641856E-03
    4   -0.10666569E+03   -0.90361780E-07    0.39839793E-04
    5   -0.10666569E+03   -0.12185296E-07    0.48239056E-05

Total Energy:                     -104.5478638187 H        -2844.8921 eV
Extrapolated to 0K:               -104.5478638187 H        -2844.8921 eV
Total Mermin free energy:         -104.5478638187 H        -2844.8921 eV
Force related energy:             -104.5478638187 H        -2844.8921 eV

Volume:                              0.108078E+05 au^3   0.160155E+04 A^3
Pressure:                            0.289201E-06 au     0.850857E+07 Pa
Maximal force component:             0.580849E-03
Averaged force norm:                 0.222920E-03
Maximal Lattice force component:     0.111638E-03 au
Averaged lattice force norm:         0.940894E-04 au
>> Charges saved for restart in charges.bin

--------------------------------------------------------------------------------

***  Geometry step: 637, Lattice step: 14

 iSCC Total electronic   Diff electronic      SCC error    
    1   -0.10666569E+03    0.00000000E+00    0.55831464E-03
    2   -0.10666502E+03    0.67593619E-03    0.29687510E-03
    3   -0.10666502E+03   -0.35303400E-06    0.12887162E-03
    4   -0.10666502E+03   -0.40181831E-07    0.26035617E-04
    5   -0.10666502E+03   -0.54183431E-08    0.30252159E-05

Total Energy:                     -104.5478653440 H        -2844.8922 eV
Extrapolated to 0K:               -104.5478653440 H        -2844.8922 eV
Total Mermin free energy:         -104.5478653440 H        -2844.8922 eV
Force related energy:             -104.5478653440 H        -2844.8922 eV

Volume:                              0.108078E+05 au^3   0.160155E+04 A^3
Pressure:                            0.106179E-06 au     0.312390E+07 Pa
Maximal force component:             0.902807E-04
Averaged force norm:                 0.365087E-04
Maximal Lattice force component:     0.510131E-04 au
Averaged lattice force norm:         0.463203E-04 au
>> Charges saved for restart in charges.bin

--------------------------------------------------------------------------------

***  Geometry step: 638, Lattice step: 14

 iSCC Total electronic   Diff electronic      SCC error    
    1   -0.10666502E+03    0.00000000E+00    0.30252159E-05

Total Energy:                     -104.5478653440 H        -2844.8922 eV
Extrapolated to 0K:               -104.5478653440 H        -2844.8922 eV
Total Mermin free energy:         -104.5478653440 H        -2844.8922 eV
Force related energy:             -104.5478653440 H        -2844.8922 eV

Volume:                              0.108078E+05 au^3   0.160155E+04 A^3
Pressure:                            0.106179E-06 au     0.312390E+07 Pa
Maximal force component:             0.902807E-04
Averaged force norm:                 0.365087E-04
Maximal Lattice force component:     0.510131E-04 au
Averaged lattice force norm:         0.463203E-04 au
>> Charges saved for restart in charges.bin

Geometry converged

--------------------------------------------------------------------------------
DFTB+ running times                          cpu [s]             wall clock [s]
--------------------------------------------------------------------------------
Global initialisation                  +       0.00 (  0.0%)       0.05 (  0.0%)
Pre-SCC initialisation                 +      13.27 (  0.7%)      13.40 (  0.7%)
SCC                                    +    1860.18 ( 96.4%)    1899.80 ( 96.0%)
Post-SCC processing                    +      56.95 (  3.0%)      64.75 (  3.3%)
--------------------------------------------------------------------------------
Missing                                +       0.01 (  0.0%)       0.09 (  0.0%)
Total                                  =    1930.42 (100.0%)    1978.09 (100.0%)
--------------------------------------------------------------------------------