   72
** Geometry step: 638, Lattice step: 14
    O      0.49229294     10.49743684      1.76875374      6.57671763
    O      2.09491538     14.97861331      1.76875374      6.57671763
    O     -2.58720850     14.12593682      1.76875374      6.57671763
    O     10.93981568      9.30355657      1.76875374      6.57671763
    O      9.33719324      4.82238010      1.76875374      6.57671763
    O     14.01931712      5.67505659      1.76875374      6.57671763
    N      3.12090951     11.01295271      1.76875374      5.13515874
    N      0.33415724     16.99730409      1.76875374      5.13515873
    N     -3.45506694     11.59173013      1.76875374      5.13515874
    N      8.31119912      8.78804069      1.76875374      5.13515874
    N     11.09795139      2.80368932      1.76875374      5.13515873
    N     14.88717556      8.20926327      1.76875374      5.13515874
    C      0.27535883     11.73227384      1.76875374      3.54960651
    C      1.13398223     14.17332435      1.76875374      3.54960651
    C     -1.40934123     13.69638876      1.76875374      3.54960651
    C     11.15674979      8.06871957      1.76875374      3.54960651
    C     10.29812640      5.62766906      1.76875374      3.54960651
    C     12.84144985      6.10460464      1.76875374      3.54960651
    C      1.39041568     12.71086829      1.76875374      4.25971265
    C     -0.27103385     14.64969468      1.76875374      4.25971265
    C     -1.11938200     12.24142398      1.76875374      4.25971265
    C     10.04169294      7.09012512      1.76875374      4.25971265
    C     11.70314247      5.15129872      1.76875374      4.25971265
    C     12.55149062      7.55956942      1.76875374      4.25971265
    C      2.72689357     12.31012634      1.76875374      3.91233062
    C     -0.59222010     16.00748945      1.76875374      3.91233062
    C     -2.13467365     11.28437115      1.76875374      3.91233062
    C      8.70521505      7.49086706      1.76875374      3.91233062
    C     12.02432872      3.79350395      1.76875374      3.91233062
    C     13.56678227      8.51662226      1.76875374      3.91233062
    C      4.42675626     10.49349754      1.76875374      3.86494968
    C      0.13109518     18.38792813      1.76875374      3.86494968
    C     -4.55785166     10.72056121      1.76875374      3.86494968
    C      7.00535236      9.30749587      1.76875374      3.86494968
    C     11.30101344      1.41306528      1.76875374      3.86494968
    C     15.98996028      9.08043220      1.76875374      3.86494968
    C      4.58036346      9.08618898      1.76875374      4.13596932
    C      1.27305650     19.22461020      1.76875374      4.13596932
    C     -5.85342025     11.29118768      1.76875374      4.13596932
    C      6.85174516     10.71480442      1.76875374      4.13596932
    C     10.15905212      0.57638321      1.76875374      4.13596932
    C     17.28552887      8.50980572      1.76875374      4.13596932
    C      5.58866439     11.30153118      1.76875374      4.13028151
    C     -1.14963657     18.99015321      1.76875374      4.13028151
    C     -4.43902800      9.31030244      1.76875374      4.13028151
    C      5.84344423      8.49946223      1.76875374      4.13028151
    C     12.58174519      0.81084020      1.76875374      4.13028151
    C     15.87113662     10.49069097      1.76875374      4.13028151
    H      3.69673791      8.44934911      1.76875374      0.90722846
    H      2.26638880     18.77778801      1.76875374      0.90722846
    H     -5.96312705     12.37484979      1.76875374      0.90722846
    H      7.73537071     11.35164430      1.76875374      0.90722846
    H      9.16571982      1.02320540      1.76875374      0.90722846
    H     17.39523567      7.42614362      1.76875374      0.90722846
    H      3.49699882     13.08688392      1.76875374      0.88896499
    H     -1.64996452     16.28604136      1.76875374      0.88896499
    H     -1.84703446     10.22906166      1.76875374      0.88896499
    H      7.93510980      6.71410948      1.76875374      0.88896499
    H     13.08207314      3.51495204      1.76875374      0.88896499
    H     13.27914308      9.57193175      1.76875374      0.88896499
    H      5.51682579     12.38712352      1.76875374      0.90662885
    H     -2.05386779     18.38514294      1.76875374      0.90662885
    H     -3.46295813      8.82972036      1.76875374      0.90662885
    H      5.91528283      7.41386988      1.76875374      0.90662885
    H     13.48597641      1.41585047      1.76875374      0.90662885
    H     14.89506676     10.97127304      1.76875374      0.90662885
    H      2.33541867     10.33605226      1.76875374      0.73245104
    H      1.31311565     16.65549932      1.76875374      0.73245104
    H     -3.64853454     12.61043537      1.76875374      0.73245104
    H      9.09668995      9.46494115      1.76875374      0.73245104
    H     10.11899297      3.14549409      1.76875374      0.73245104
    H     15.08064316      7.19055803      1.76875374      0.73245104