|===============================================================================
|
|  DFTB+ release 24.1
|
|  Copyright (C) 2006 - 2024  DFTB+ developers group
|
|===============================================================================
|
|  When publishing results obtained with DFTB+, please cite the following
|  reference:
|
|  * DFTB+, a software package for efficient approximate density functional
|    theory based atomistic simulations, J. Chem. Phys. 152, 124101 (2020).
|    [doi: 10.1063/1.5143190]
|
|  You should also cite additional publications crediting the parametrization
|  data you use. Please consult the documentation of the SK-files for the
|  references.
|
|===============================================================================

Reading input file 'dftb_in.hsd'
Parser version: 14

--------------------------------------------------------------------------------
Reading SK-files:
/project/design-lab/software/DFTB+/3ob-3-1/O-O.skf
/project/design-lab/software/DFTB+/3ob-3-1/O-N.skf
/project/design-lab/software/DFTB+/3ob-3-1/O-C.skf
/project/design-lab/software/DFTB+/3ob-3-1/O-H.skf
/project/design-lab/software/DFTB+/3ob-3-1/N-N.skf
/project/design-lab/software/DFTB+/3ob-3-1/N-C.skf
/project/design-lab/software/DFTB+/3ob-3-1/N-H.skf
/project/design-lab/software/DFTB+/3ob-3-1/C-C.skf
/project/design-lab/software/DFTB+/3ob-3-1/C-H.skf
/project/design-lab/software/DFTB+/3ob-3-1/H-H.skf
Done.


Processed input in HSD format written to 'dftb_pin.hsd'

Starting initialization...
--------------------------------------------------------------------------------
WARNING!
-> The suplied k-points are probably not accurate for properties requiring integration over the Brillouin zone
WARNING!
-> Dipole printed for extended system : value printed is not well defined
MPI processes:               4
OpenMP threads:              1
BLACS orbital grid size:     2 x 2
BLACS atom grid size:        2 x 2
Chosen random seed:          1930115635
Current stacksize:           unlimited
Mode:                        Static calculation
Self consistent charges:     Yes
SCC-tolerance:                 0.100000E-04
Max. scc iterations:                      1
Shell resolved Hubbard:      No
Spin polarisation:           No
Nr. of up electrons:           117.000000
Nr. of down electrons:         117.000000
Periodic boundaries:         Yes
Electronic solver:           Relatively robust
Mixer:                       Broyden mixer
Mixing parameter:                  0.200000
Maximal SCC-cycles:                       1
Nr. of chrg. vec. in memory:              1
Electronic temperature:              0.100000E-07 H      0.272114E-06 eV
Initial charges:             Read in from 'charges'
Included shells:             O:  s, p
                             N:  s, p
                             C:  s, p
                             H:  s
K-points and weights:           1:  0.000000  0.000000  0.000000     0.012346
                                2:  0.015000  0.015000  0.000000     0.012346
                                3:  0.030000  0.030000  0.000000     0.012346
                                4:  0.045000  0.045000  0.000000     0.012346
                                5:  0.060000  0.060000  0.000000     0.012346
                                6:  0.075000  0.075000  0.000000     0.012346
                                7:  0.090000  0.090000  0.000000     0.012346
                                8:  0.105000  0.105000  0.000000     0.012346
                                9:  0.120000  0.120000  0.000000     0.012346
                               10:  0.135000  0.135000  0.000000     0.012346
                               11:  0.150000  0.150000  0.000000     0.012346
                               12:  0.165000  0.165000  0.000000     0.012346
                               13:  0.180000  0.180000  0.000000     0.012346
                               14:  0.195000  0.195000  0.000000     0.012346
                               15:  0.210000  0.210000  0.000000     0.012346
                               16:  0.225000  0.225000  0.000000     0.012346
                               17:  0.240000  0.240000  0.000000     0.012346
                               18:  0.255000  0.255000  0.000000     0.012346
                               19:  0.270000  0.270000  0.000000     0.012346
                               20:  0.285000  0.285000  0.000000     0.012346
                               21:  0.300000  0.300000  0.000000     0.012346
                               22:  0.310000  0.285000  0.000000     0.012346
                               23:  0.320000  0.270000  0.000000     0.012346
                               24:  0.330000  0.255000  0.000000     0.012346
                               25:  0.340000  0.240000  0.000000     0.012346
                               26:  0.350000  0.225000  0.000000     0.012346
                               27:  0.360000  0.210000  0.000000     0.012346
                               28:  0.370000  0.195000  0.000000     0.012346
                               29:  0.380000  0.180000  0.000000     0.012346
                               30:  0.390000  0.165000  0.000000     0.012346
                               31:  0.400000  0.150000  0.000000     0.012346
                               32:  0.410000  0.135000  0.000000     0.012346
                               33:  0.420000  0.120000  0.000000     0.012346
                               34:  0.430000  0.105000  0.000000     0.012346
                               35:  0.440000  0.090000  0.000000     0.012346
                               36:  0.450000  0.075000  0.000000     0.012346
                               37:  0.460000  0.060000  0.000000     0.012346
                               38:  0.470000  0.045000  0.000000     0.012346
                               39:  0.480000  0.030000  0.000000     0.012346
                               40:  0.490000  0.015000  0.000000     0.012346
                               41:  0.500000  0.000000  0.000000     0.012346
                               42:  0.475000  0.000000  0.000000     0.012346
                               43:  0.450000  0.000000  0.000000     0.012346
                               44:  0.425000  0.000000  0.000000     0.012346
                               45:  0.400000  0.000000  0.000000     0.012346
                               46:  0.375000  0.000000  0.000000     0.012346
                               47:  0.350000  0.000000  0.000000     0.012346
                               48:  0.325000  0.000000  0.000000     0.012346
                               49:  0.300000  0.000000  0.000000     0.012346
                               50:  0.275000  0.000000  0.000000     0.012346
                               51:  0.250000  0.000000  0.000000     0.012346
                               52:  0.225000  0.000000  0.000000     0.012346
                               53:  0.200000  0.000000  0.000000     0.012346
                               54:  0.175000  0.000000  0.000000     0.012346
                               55:  0.150000  0.000000  0.000000     0.012346
                               56:  0.125000  0.000000  0.000000     0.012346
                               57:  0.100000  0.000000  0.000000     0.012346
                               58:  0.075000  0.000000  0.000000     0.012346
                               59:  0.050000  0.000000  0.000000     0.012346
                               60:  0.025000  0.000000  0.000000     0.012346
                               61:  0.000000  0.000000  0.000000     0.012346
                               62:  0.000000  0.000000  0.025000     0.012346
                               63:  0.000000  0.000000  0.050000     0.012346
                               64:  0.000000  0.000000  0.075000     0.012346
                               65:  0.000000  0.000000  0.100000     0.012346
                               66:  0.000000  0.000000  0.125000     0.012346
                               67:  0.000000  0.000000  0.150000     0.012346
                               68:  0.000000  0.000000  0.175000     0.012346
                               69:  0.000000  0.000000  0.200000     0.012346
                               70:  0.000000  0.000000  0.225000     0.012346
                               71:  0.000000  0.000000  0.250000     0.012346
                               72:  0.000000  0.000000  0.275000     0.012346
                               73:  0.000000  0.000000  0.300000     0.012346
                               74:  0.000000  0.000000  0.325000     0.012346
                               75:  0.000000  0.000000  0.350000     0.012346
                               76:  0.000000  0.000000  0.375000     0.012346
                               77:  0.000000  0.000000  0.400000     0.012346
                               78:  0.000000  0.000000  0.425000     0.012346
                               79:  0.000000  0.000000  0.450000     0.012346
                               80:  0.000000  0.000000  0.475000     0.012346
                               81:  0.000000  0.000000  0.500000     0.012346

K-points in absolute space:     1:  0.000000  0.000000  0.000000
                                2:  0.000347  0.000601  0.000000
                                3:  0.000694  0.001203  0.000000
                                4:  0.001041  0.001804  0.000000
                                5:  0.001389  0.002405  0.000000
                                6:  0.001736  0.003007  0.000000
                                7:  0.002083  0.003608  0.000000
                                8:  0.002430  0.004209  0.000000
                                9:  0.002777  0.004810  0.000000
                               10:  0.003124  0.005412  0.000000
                               11:  0.003472  0.006013  0.000000
                               12:  0.003819  0.006614  0.000000
                               13:  0.004166  0.007216  0.000000
                               14:  0.004513  0.007817  0.000000
                               15:  0.004860  0.008418  0.000000
                               16:  0.005207  0.009020  0.000000
                               17:  0.005555  0.009621  0.000000
                               18:  0.005902  0.010222  0.000000
                               19:  0.006249  0.010824  0.000000
                               20:  0.006596  0.011425  0.000000
                               21:  0.006943  0.012026  0.000000
                               22:  0.007175  0.011759  0.000000
                               23:  0.007406  0.011492  0.000000
                               24:  0.007638  0.011224  0.000000
                               25:  0.007869  0.010957  0.000000
                               26:  0.008101  0.010690  0.000000
                               27:  0.008332  0.010423  0.000000
                               28:  0.008563  0.010155  0.000000
                               29:  0.008795  0.009888  0.000000
                               30:  0.009026  0.009621  0.000000
                               31:  0.009258  0.009354  0.000000
                               32:  0.009489  0.009086  0.000000
                               33:  0.009721  0.008819  0.000000
                               34:  0.009952  0.008552  0.000000
                               35:  0.010184  0.008285  0.000000
                               36:  0.010415  0.008017  0.000000
                               37:  0.010646  0.007750  0.000000
                               38:  0.010878  0.007483  0.000000
                               39:  0.011109  0.007216  0.000000
                               40:  0.011341  0.006948  0.000000
                               41:  0.011572  0.006681  0.000000
                               42:  0.010994  0.006347  0.000000
                               43:  0.010415  0.006013  0.000000
                               44:  0.009836  0.005679  0.000000
                               45:  0.009258  0.005345  0.000000
                               46:  0.008679  0.005011  0.000000
                               47:  0.008101  0.004677  0.000000
                               48:  0.007522  0.004343  0.000000
                               49:  0.006943  0.004009  0.000000
                               50:  0.006365  0.003675  0.000000
                               51:  0.005786  0.003341  0.000000
                               52:  0.005207  0.003007  0.000000
                               53:  0.004629  0.002672  0.000000
                               54:  0.004050  0.002338  0.000000
                               55:  0.003472  0.002004  0.000000
                               56:  0.002893  0.001670  0.000000
                               57:  0.002314  0.001336  0.000000
                               58:  0.001736  0.001002  0.000000
                               59:  0.001157  0.000668  0.000000
                               60:  0.000579  0.000334  0.000000
                               61:  0.000000  0.000000  0.000000
                               62:  0.000000  0.000000  0.003740
                               63:  0.000000  0.000000  0.007480
                               64:  0.000000  0.000000  0.011219
                               65:  0.000000  0.000000  0.014959
                               66:  0.000000  0.000000  0.018699
                               67:  0.000000  0.000000  0.022439
                               68:  0.000000  0.000000  0.026178
                               69:  0.000000  0.000000  0.029918
                               70:  0.000000  0.000000  0.033658
                               71:  0.000000  0.000000  0.037398
                               72:  0.000000  0.000000  0.041137
                               73:  0.000000  0.000000  0.044877
                               74:  0.000000  0.000000  0.048617
                               75:  0.000000  0.000000  0.052357
                               76:  0.000000  0.000000  0.056096
                               77:  0.000000  0.000000  0.059836
                               78:  0.000000  0.000000  0.063576
                               79:  0.000000  0.000000  0.067316
                               80:  0.000000  0.000000  0.071055
                               81:  0.000000  0.000000  0.074795

Using Lennard-Jones dispersion corrections
Full 3rd order correction    Yes
Damped SCC                   Yes
Damped species(s):           H                                                 
Extra options:
                             Mulliken analysis

--------------------------------------------------------------------------------

***  Geometry step: 0

 iSCC Total electronic   Diff electronic      SCC error    
    1    0.00000000E+00    0.00000000E+00    0.16419372E-01
WARNING!
-> SCC is NOT converged, maximal SCC iterations exceeded

Total Energy:                     -104.3558991920 H        -2839.6685 eV
Extrapolated to 0K:               -104.3558991920 H        -2839.6685 eV
Total Mermin free energy:         -104.3558991920 H        -2839.6685 eV
Force related energy:             -104.3558991920 H        -2839.6685 eV


--------------------------------------------------------------------------------
DFTB+ running times                          cpu [s]             wall clock [s]
--------------------------------------------------------------------------------
Global initialisation                  +       0.00 (  0.2%)       0.01 (  0.7%)
Pre-SCC initialisation                 +       0.03 (  1.5%)       0.03 (  1.4%)
SCC                                    +       1.69 ( 98.3%)       1.70 ( 97.8%)
--------------------------------------------------------------------------------
Missing                                +       0.00 (  0.0%)       0.00 (  0.1%)
Total                                  =       1.72 (100.0%)       1.74 (100.0%)
--------------------------------------------------------------------------------