|===============================================================================
|
|  DFTB+ release 24.1
|
|  Copyright (C) 2006 - 2024  DFTB+ developers group
|
|===============================================================================
|
|  When publishing results obtained with DFTB+, please cite the following
|  reference:
|
|  * DFTB+, a software package for efficient approximate density functional
|    theory based atomistic simulations, J. Chem. Phys. 152, 124101 (2020).
|    [doi: 10.1063/1.5143190]
|
|  You should also cite additional publications crediting the parametrization
|  data you use. Please consult the documentation of the SK-files for the
|  references.
|
|===============================================================================

Reading input file 'dftb_in.hsd'
Parser version: 14

--------------------------------------------------------------------------------
Reading SK-files:
/project/design-lab/software/DFTB+/3ob-3-1/O-O.skf
/project/design-lab/software/DFTB+/3ob-3-1/O-N.skf
/project/design-lab/software/DFTB+/3ob-3-1/O-C.skf
/project/design-lab/software/DFTB+/3ob-3-1/O-H.skf
/project/design-lab/software/DFTB+/3ob-3-1/N-N.skf
/project/design-lab/software/DFTB+/3ob-3-1/N-C.skf
/project/design-lab/software/DFTB+/3ob-3-1/N-H.skf
/project/design-lab/software/DFTB+/3ob-3-1/C-C.skf
/project/design-lab/software/DFTB+/3ob-3-1/C-H.skf
/project/design-lab/software/DFTB+/3ob-3-1/H-H.skf
Done.


Processed input in HSD format written to 'dftb_pin.hsd'

Starting initialization...
--------------------------------------------------------------------------------
WARNING!
-> Dipole printed for extended system : value printed is not well defined
MPI processes:               4
OpenMP threads:              1
BLACS orbital grid size:     2 x 2
BLACS atom grid size:        2 x 2
Chosen random seed:          1931393225
Current stacksize:           unlimited
Mode:                        Static calculation
Self consistent charges:     Yes
SCC-tolerance:                 0.100000E-04
Max. scc iterations:                   1000
Shell resolved Hubbard:      No
Spin polarisation:           No
Nr. of up electrons:           117.000000
Nr. of down electrons:         117.000000
Periodic boundaries:         Yes
Electronic solver:           Relatively robust
Mixer:                       Broyden mixer
Mixing parameter:                  0.200000
Maximal SCC-cycles:                    1000
Nr. of chrg. vec. in memory:           1000
Electronic temperature:              0.100000E-07 H      0.272114E-06 eV
Initial charges:             Read in from 'charges'
Included shells:             O:  s, p
                             N:  s, p
                             C:  s, p
                             H:  s
K-points and weights:           1:  0.041667  0.041667  0.041667     0.001157
                                2:  0.041667  0.041667  0.125000     0.001157
                                3:  0.041667  0.041667  0.208333     0.001157
                                4:  0.041667  0.041667  0.291667     0.001157
                                5:  0.041667  0.041667  0.375000     0.001157
                                6:  0.041667  0.041667  0.458333     0.001157
                                7:  0.041667  0.041667  0.541667     0.001157
                                8:  0.041667  0.041667  0.625000     0.001157
                                9:  0.041667  0.041667  0.708333     0.001157
                               10:  0.041667  0.041667  0.791667     0.001157
                               11:  0.041667  0.041667  0.875000     0.001157
                               12:  0.041667  0.041667  0.958333     0.001157
                               13:  0.041667  0.125000  0.041667     0.001157
                               14:  0.041667  0.125000  0.125000     0.001157
                               15:  0.041667  0.125000  0.208333     0.001157
                               16:  0.041667  0.125000  0.291667     0.001157
                               17:  0.041667  0.125000  0.375000     0.001157
                               18:  0.041667  0.125000  0.458333     0.001157
                               19:  0.041667  0.125000  0.541667     0.001157
                               20:  0.041667  0.125000  0.625000     0.001157
                               21:  0.041667  0.125000  0.708333     0.001157
                               22:  0.041667  0.125000  0.791667     0.001157
                               23:  0.041667  0.125000  0.875000     0.001157
                               24:  0.041667  0.125000  0.958333     0.001157
                               25:  0.041667  0.208333  0.041667     0.001157
                               26:  0.041667  0.208333  0.125000     0.001157
                               27:  0.041667  0.208333  0.208333     0.001157
                               28:  0.041667  0.208333  0.291667     0.001157
                               29:  0.041667  0.208333  0.375000     0.001157
                               30:  0.041667  0.208333  0.458333     0.001157
                               31:  0.041667  0.208333  0.541667     0.001157
                               32:  0.041667  0.208333  0.625000     0.001157
                               33:  0.041667  0.208333  0.708333     0.001157
                               34:  0.041667  0.208333  0.791667     0.001157
                               35:  0.041667  0.208333  0.875000     0.001157
                               36:  0.041667  0.208333  0.958333     0.001157
                               37:  0.041667  0.291667  0.041667     0.001157
                               38:  0.041667  0.291667  0.125000     0.001157
                               39:  0.041667  0.291667  0.208333     0.001157
                               40:  0.041667  0.291667  0.291667     0.001157
                               41:  0.041667  0.291667  0.375000     0.001157
                               42:  0.041667  0.291667  0.458333     0.001157
                               43:  0.041667  0.291667  0.541667     0.001157
                               44:  0.041667  0.291667  0.625000     0.001157
                               45:  0.041667  0.291667  0.708333     0.001157
                               46:  0.041667  0.291667  0.791667     0.001157
                               47:  0.041667  0.291667  0.875000     0.001157
                               48:  0.041667  0.291667  0.958333     0.001157
                               49:  0.041667  0.375000  0.041667     0.001157
                               50:  0.041667  0.375000  0.125000     0.001157
                               51:  0.041667  0.375000  0.208333     0.001157
                               52:  0.041667  0.375000  0.291667     0.001157
                               53:  0.041667  0.375000  0.375000     0.001157
                               54:  0.041667  0.375000  0.458333     0.001157
                               55:  0.041667  0.375000  0.541667     0.001157
                               56:  0.041667  0.375000  0.625000     0.001157
                               57:  0.041667  0.375000  0.708333     0.001157
                               58:  0.041667  0.375000  0.791667     0.001157
                               59:  0.041667  0.375000  0.875000     0.001157
                               60:  0.041667  0.375000  0.958333     0.001157
                               61:  0.041667  0.458333  0.041667     0.001157
                               62:  0.041667  0.458333  0.125000     0.001157
                               63:  0.041667  0.458333  0.208333     0.001157
                               64:  0.041667  0.458333  0.291667     0.001157
                               65:  0.041667  0.458333  0.375000     0.001157
                               66:  0.041667  0.458333  0.458333     0.001157
                               67:  0.041667  0.458333  0.541667     0.001157
                               68:  0.041667  0.458333  0.625000     0.001157
                               69:  0.041667  0.458333  0.708333     0.001157
                               70:  0.041667  0.458333  0.791667     0.001157
                               71:  0.041667  0.458333  0.875000     0.001157
                               72:  0.041667  0.458333  0.958333     0.001157
                               73:  0.041667  0.541667  0.041667     0.001157
                               74:  0.041667  0.541667  0.125000     0.001157
                               75:  0.041667  0.541667  0.208333     0.001157
                               76:  0.041667  0.541667  0.291667     0.001157
                               77:  0.041667  0.541667  0.375000     0.001157
                               78:  0.041667  0.541667  0.458333     0.001157
                               79:  0.041667  0.541667  0.541667     0.001157
                               80:  0.041667  0.541667  0.625000     0.001157
                               81:  0.041667  0.541667  0.708333     0.001157
                               82:  0.041667  0.541667  0.791667     0.001157
                               83:  0.041667  0.541667  0.875000     0.001157
                               84:  0.041667  0.541667  0.958333     0.001157
                               85:  0.041667  0.625000  0.041667     0.001157
                               86:  0.041667  0.625000  0.125000     0.001157
                               87:  0.041667  0.625000  0.208333     0.001157
                               88:  0.041667  0.625000  0.291667     0.001157
                               89:  0.041667  0.625000  0.375000     0.001157
                               90:  0.041667  0.625000  0.458333     0.001157
                               91:  0.041667  0.625000  0.541667     0.001157
                               92:  0.041667  0.625000  0.625000     0.001157
                               93:  0.041667  0.625000  0.708333     0.001157
                               94:  0.041667  0.625000  0.791667     0.001157
                               95:  0.041667  0.625000  0.875000     0.001157
                               96:  0.041667  0.625000  0.958333     0.001157
                               97:  0.041667  0.708333  0.041667     0.001157
                               98:  0.041667  0.708333  0.125000     0.001157
                               99:  0.041667  0.708333  0.208333     0.001157
                              100:  0.041667  0.708333  0.291667     0.001157
                              101:  0.041667  0.708333  0.375000     0.001157
                              102:  0.041667  0.708333  0.458333     0.001157
                              103:  0.041667  0.708333  0.541667     0.001157
                              104:  0.041667  0.708333  0.625000     0.001157
                              105:  0.041667  0.708333  0.708333     0.001157
                              106:  0.041667  0.708333  0.791667     0.001157
                              107:  0.041667  0.708333  0.875000     0.001157
                              108:  0.041667  0.708333  0.958333     0.001157
                              109:  0.041667  0.791667  0.041667     0.001157
                              110:  0.041667  0.791667  0.125000     0.001157
                              111:  0.041667  0.791667  0.208333     0.001157
                              112:  0.041667  0.791667  0.291667     0.001157
                              113:  0.041667  0.791667  0.375000     0.001157
                              114:  0.041667  0.791667  0.458333     0.001157
                              115:  0.041667  0.791667  0.541667     0.001157
                              116:  0.041667  0.791667  0.625000     0.001157
                              117:  0.041667  0.791667  0.708333     0.001157
                              118:  0.041667  0.791667  0.791667     0.001157
                              119:  0.041667  0.791667  0.875000     0.001157
                              120:  0.041667  0.791667  0.958333     0.001157
                              121:  0.041667  0.875000  0.041667     0.001157
                              122:  0.041667  0.875000  0.125000     0.001157
                              123:  0.041667  0.875000  0.208333     0.001157
                              124:  0.041667  0.875000  0.291667     0.001157
                              125:  0.041667  0.875000  0.375000     0.001157
                              126:  0.041667  0.875000  0.458333     0.001157
                              127:  0.041667  0.875000  0.541667     0.001157
                              128:  0.041667  0.875000  0.625000     0.001157
                              129:  0.041667  0.875000  0.708333     0.001157
                              130:  0.041667  0.875000  0.791667     0.001157
                              131:  0.041667  0.875000  0.875000     0.001157
                              132:  0.041667  0.875000  0.958333     0.001157
                              133:  0.041667  0.958333  0.041667     0.001157
                              134:  0.041667  0.958333  0.125000     0.001157
                              135:  0.041667  0.958333  0.208333     0.001157
                              136:  0.041667  0.958333  0.291667     0.001157
                              137:  0.041667  0.958333  0.375000     0.001157
                              138:  0.041667  0.958333  0.458333     0.001157
                              139:  0.041667  0.958333  0.541667     0.001157
                              140:  0.041667  0.958333  0.625000     0.001157
                              141:  0.041667  0.958333  0.708333     0.001157
                              142:  0.041667  0.958333  0.791667     0.001157
                              143:  0.041667  0.958333  0.875000     0.001157
                              144:  0.041667  0.958333  0.958333     0.001157
                              145:  0.125000  0.041667  0.041667     0.001157
                              146:  0.125000  0.041667  0.125000     0.001157
                              147:  0.125000  0.041667  0.208333     0.001157
                              148:  0.125000  0.041667  0.291667     0.001157
                              149:  0.125000  0.041667  0.375000     0.001157
                              150:  0.125000  0.041667  0.458333     0.001157
                              151:  0.125000  0.041667  0.541667     0.001157
                              152:  0.125000  0.041667  0.625000     0.001157
                              153:  0.125000  0.041667  0.708333     0.001157
                              154:  0.125000  0.041667  0.791667     0.001157
                              155:  0.125000  0.041667  0.875000     0.001157
                              156:  0.125000  0.041667  0.958333     0.001157
                              157:  0.125000  0.125000  0.041667     0.001157
                              158:  0.125000  0.125000  0.125000     0.001157
                              159:  0.125000  0.125000  0.208333     0.001157
                              160:  0.125000  0.125000  0.291667     0.001157
                              161:  0.125000  0.125000  0.375000     0.001157
                              162:  0.125000  0.125000  0.458333     0.001157
                              163:  0.125000  0.125000  0.541667     0.001157
                              164:  0.125000  0.125000  0.625000     0.001157
                              165:  0.125000  0.125000  0.708333     0.001157
                              166:  0.125000  0.125000  0.791667     0.001157
                              167:  0.125000  0.125000  0.875000     0.001157
                              168:  0.125000  0.125000  0.958333     0.001157
                              169:  0.125000  0.208333  0.041667     0.001157
                              170:  0.125000  0.208333  0.125000     0.001157
                              171:  0.125000  0.208333  0.208333     0.001157
                              172:  0.125000  0.208333  0.291667     0.001157
                              173:  0.125000  0.208333  0.375000     0.001157
                              174:  0.125000  0.208333  0.458333     0.001157
                              175:  0.125000  0.208333  0.541667     0.001157
                              176:  0.125000  0.208333  0.625000     0.001157
                              177:  0.125000  0.208333  0.708333     0.001157
                              178:  0.125000  0.208333  0.791667     0.001157
                              179:  0.125000  0.208333  0.875000     0.001157
                              180:  0.125000  0.208333  0.958333     0.001157
                              181:  0.125000  0.291667  0.041667     0.001157
                              182:  0.125000  0.291667  0.125000     0.001157
                              183:  0.125000  0.291667  0.208333     0.001157
                              184:  0.125000  0.291667  0.291667     0.001157
                              185:  0.125000  0.291667  0.375000     0.001157
                              186:  0.125000  0.291667  0.458333     0.001157
                              187:  0.125000  0.291667  0.541667     0.001157
                              188:  0.125000  0.291667  0.625000     0.001157
                              189:  0.125000  0.291667  0.708333     0.001157
                              190:  0.125000  0.291667  0.791667     0.001157
                              191:  0.125000  0.291667  0.875000     0.001157
                              192:  0.125000  0.291667  0.958333     0.001157
                              193:  0.125000  0.375000  0.041667     0.001157
                              194:  0.125000  0.375000  0.125000     0.001157
                              195:  0.125000  0.375000  0.208333     0.001157
                              196:  0.125000  0.375000  0.291667     0.001157
                              197:  0.125000  0.375000  0.375000     0.001157
                              198:  0.125000  0.375000  0.458333     0.001157
                              199:  0.125000  0.375000  0.541667     0.001157
                              200:  0.125000  0.375000  0.625000     0.001157
                              201:  0.125000  0.375000  0.708333     0.001157
                              202:  0.125000  0.375000  0.791667     0.001157
                              203:  0.125000  0.375000  0.875000     0.001157
                              204:  0.125000  0.375000  0.958333     0.001157
                              205:  0.125000  0.458333  0.041667     0.001157
                              206:  0.125000  0.458333  0.125000     0.001157
                              207:  0.125000  0.458333  0.208333     0.001157
                              208:  0.125000  0.458333  0.291667     0.001157
                              209:  0.125000  0.458333  0.375000     0.001157
                              210:  0.125000  0.458333  0.458333     0.001157
                              211:  0.125000  0.458333  0.541667     0.001157
                              212:  0.125000  0.458333  0.625000     0.001157
                              213:  0.125000  0.458333  0.708333     0.001157
                              214:  0.125000  0.458333  0.791667     0.001157
                              215:  0.125000  0.458333  0.875000     0.001157
                              216:  0.125000  0.458333  0.958333     0.001157
                              217:  0.125000  0.541667  0.041667     0.001157
                              218:  0.125000  0.541667  0.125000     0.001157
                              219:  0.125000  0.541667  0.208333     0.001157
                              220:  0.125000  0.541667  0.291667     0.001157
                              221:  0.125000  0.541667  0.375000     0.001157
                              222:  0.125000  0.541667  0.458333     0.001157
                              223:  0.125000  0.541667  0.541667     0.001157
                              224:  0.125000  0.541667  0.625000     0.001157
                              225:  0.125000  0.541667  0.708333     0.001157
                              226:  0.125000  0.541667  0.791667     0.001157
                              227:  0.125000  0.541667  0.875000     0.001157
                              228:  0.125000  0.541667  0.958333     0.001157
                              229:  0.125000  0.625000  0.041667     0.001157
                              230:  0.125000  0.625000  0.125000     0.001157
                              231:  0.125000  0.625000  0.208333     0.001157
                              232:  0.125000  0.625000  0.291667     0.001157
                              233:  0.125000  0.625000  0.375000     0.001157
                              234:  0.125000  0.625000  0.458333     0.001157
                              235:  0.125000  0.625000  0.541667     0.001157
                              236:  0.125000  0.625000  0.625000     0.001157
                              237:  0.125000  0.625000  0.708333     0.001157
                              238:  0.125000  0.625000  0.791667     0.001157
                              239:  0.125000  0.625000  0.875000     0.001157
                              240:  0.125000  0.625000  0.958333     0.001157
                              241:  0.125000  0.708333  0.041667     0.001157
                              242:  0.125000  0.708333  0.125000     0.001157
                              243:  0.125000  0.708333  0.208333     0.001157
                              244:  0.125000  0.708333  0.291667     0.001157
                              245:  0.125000  0.708333  0.375000     0.001157
                              246:  0.125000  0.708333  0.458333     0.001157
                              247:  0.125000  0.708333  0.541667     0.001157
                              248:  0.125000  0.708333  0.625000     0.001157
                              249:  0.125000  0.708333  0.708333     0.001157
                              250:  0.125000  0.708333  0.791667     0.001157
                              251:  0.125000  0.708333  0.875000     0.001157
                              252:  0.125000  0.708333  0.958333     0.001157
                              253:  0.125000  0.791667  0.041667     0.001157
                              254:  0.125000  0.791667  0.125000     0.001157
                              255:  0.125000  0.791667  0.208333     0.001157
                              256:  0.125000  0.791667  0.291667     0.001157
                              257:  0.125000  0.791667  0.375000     0.001157
                              258:  0.125000  0.791667  0.458333     0.001157
                              259:  0.125000  0.791667  0.541667     0.001157
                              260:  0.125000  0.791667  0.625000     0.001157
                              261:  0.125000  0.791667  0.708333     0.001157
                              262:  0.125000  0.791667  0.791667     0.001157
                              263:  0.125000  0.791667  0.875000     0.001157
                              264:  0.125000  0.791667  0.958333     0.001157
                              265:  0.125000  0.875000  0.041667     0.001157
                              266:  0.125000  0.875000  0.125000     0.001157
                              267:  0.125000  0.875000  0.208333     0.001157
                              268:  0.125000  0.875000  0.291667     0.001157
                              269:  0.125000  0.875000  0.375000     0.001157
                              270:  0.125000  0.875000  0.458333     0.001157
                              271:  0.125000  0.875000  0.541667     0.001157
                              272:  0.125000  0.875000  0.625000     0.001157
                              273:  0.125000  0.875000  0.708333     0.001157
                              274:  0.125000  0.875000  0.791667     0.001157
                              275:  0.125000  0.875000  0.875000     0.001157
                              276:  0.125000  0.875000  0.958333     0.001157
                              277:  0.125000  0.958333  0.041667     0.001157
                              278:  0.125000  0.958333  0.125000     0.001157
                              279:  0.125000  0.958333  0.208333     0.001157
                              280:  0.125000  0.958333  0.291667     0.001157
                              281:  0.125000  0.958333  0.375000     0.001157
                              282:  0.125000  0.958333  0.458333     0.001157
                              283:  0.125000  0.958333  0.541667     0.001157
                              284:  0.125000  0.958333  0.625000     0.001157
                              285:  0.125000  0.958333  0.708333     0.001157
                              286:  0.125000  0.958333  0.791667     0.001157
                              287:  0.125000  0.958333  0.875000     0.001157
                              288:  0.125000  0.958333  0.958333     0.001157
                              289:  0.208333  0.041667  0.041667     0.001157
                              290:  0.208333  0.041667  0.125000     0.001157
                              291:  0.208333  0.041667  0.208333     0.001157
                              292:  0.208333  0.041667  0.291667     0.001157
                              293:  0.208333  0.041667  0.375000     0.001157
                              294:  0.208333  0.041667  0.458333     0.001157
                              295:  0.208333  0.041667  0.541667     0.001157
                              296:  0.208333  0.041667  0.625000     0.001157
                              297:  0.208333  0.041667  0.708333     0.001157
                              298:  0.208333  0.041667  0.791667     0.001157
                              299:  0.208333  0.041667  0.875000     0.001157
                              300:  0.208333  0.041667  0.958333     0.001157
                              301:  0.208333  0.125000  0.041667     0.001157
                              302:  0.208333  0.125000  0.125000     0.001157
                              303:  0.208333  0.125000  0.208333     0.001157
                              304:  0.208333  0.125000  0.291667     0.001157
                              305:  0.208333  0.125000  0.375000     0.001157
                              306:  0.208333  0.125000  0.458333     0.001157
                              307:  0.208333  0.125000  0.541667     0.001157
                              308:  0.208333  0.125000  0.625000     0.001157
                              309:  0.208333  0.125000  0.708333     0.001157
                              310:  0.208333  0.125000  0.791667     0.001157
                              311:  0.208333  0.125000  0.875000     0.001157
                              312:  0.208333  0.125000  0.958333     0.001157
                              313:  0.208333  0.208333  0.041667     0.001157
                              314:  0.208333  0.208333  0.125000     0.001157
                              315:  0.208333  0.208333  0.208333     0.001157
                              316:  0.208333  0.208333  0.291667     0.001157
                              317:  0.208333  0.208333  0.375000     0.001157
                              318:  0.208333  0.208333  0.458333     0.001157
                              319:  0.208333  0.208333  0.541667     0.001157
                              320:  0.208333  0.208333  0.625000     0.001157
                              321:  0.208333  0.208333  0.708333     0.001157
                              322:  0.208333  0.208333  0.791667     0.001157
                              323:  0.208333  0.208333  0.875000     0.001157
                              324:  0.208333  0.208333  0.958333     0.001157
                              325:  0.208333  0.291667  0.041667     0.001157
                              326:  0.208333  0.291667  0.125000     0.001157
                              327:  0.208333  0.291667  0.208333     0.001157
                              328:  0.208333  0.291667  0.291667     0.001157
                              329:  0.208333  0.291667  0.375000     0.001157
                              330:  0.208333  0.291667  0.458333     0.001157
                              331:  0.208333  0.291667  0.541667     0.001157
                              332:  0.208333  0.291667  0.625000     0.001157
                              333:  0.208333  0.291667  0.708333     0.001157
                              334:  0.208333  0.291667  0.791667     0.001157
                              335:  0.208333  0.291667  0.875000     0.001157
                              336:  0.208333  0.291667  0.958333     0.001157
                              337:  0.208333  0.375000  0.041667     0.001157
                              338:  0.208333  0.375000  0.125000     0.001157
                              339:  0.208333  0.375000  0.208333     0.001157
                              340:  0.208333  0.375000  0.291667     0.001157
                              341:  0.208333  0.375000  0.375000     0.001157
                              342:  0.208333  0.375000  0.458333     0.001157
                              343:  0.208333  0.375000  0.541667     0.001157
                              344:  0.208333  0.375000  0.625000     0.001157
                              345:  0.208333  0.375000  0.708333     0.001157
                              346:  0.208333  0.375000  0.791667     0.001157
                              347:  0.208333  0.375000  0.875000     0.001157
                              348:  0.208333  0.375000  0.958333     0.001157
                              349:  0.208333  0.458333  0.041667     0.001157
                              350:  0.208333  0.458333  0.125000     0.001157
                              351:  0.208333  0.458333  0.208333     0.001157
                              352:  0.208333  0.458333  0.291667     0.001157
                              353:  0.208333  0.458333  0.375000     0.001157
                              354:  0.208333  0.458333  0.458333     0.001157
                              355:  0.208333  0.458333  0.541667     0.001157
                              356:  0.208333  0.458333  0.625000     0.001157
                              357:  0.208333  0.458333  0.708333     0.001157
                              358:  0.208333  0.458333  0.791667     0.001157
                              359:  0.208333  0.458333  0.875000     0.001157
                              360:  0.208333  0.458333  0.958333     0.001157
                              361:  0.208333  0.541667  0.041667     0.001157
                              362:  0.208333  0.541667  0.125000     0.001157
                              363:  0.208333  0.541667  0.208333     0.001157
                              364:  0.208333  0.541667  0.291667     0.001157
                              365:  0.208333  0.541667  0.375000     0.001157
                              366:  0.208333  0.541667  0.458333     0.001157
                              367:  0.208333  0.541667  0.541667     0.001157
                              368:  0.208333  0.541667  0.625000     0.001157
                              369:  0.208333  0.541667  0.708333     0.001157
                              370:  0.208333  0.541667  0.791667     0.001157
                              371:  0.208333  0.541667  0.875000     0.001157
                              372:  0.208333  0.541667  0.958333     0.001157
                              373:  0.208333  0.625000  0.041667     0.001157
                              374:  0.208333  0.625000  0.125000     0.001157
                              375:  0.208333  0.625000  0.208333     0.001157
                              376:  0.208333  0.625000  0.291667     0.001157
                              377:  0.208333  0.625000  0.375000     0.001157
                              378:  0.208333  0.625000  0.458333     0.001157
                              379:  0.208333  0.625000  0.541667     0.001157
                              380:  0.208333  0.625000  0.625000     0.001157
                              381:  0.208333  0.625000  0.708333     0.001157
                              382:  0.208333  0.625000  0.791667     0.001157
                              383:  0.208333  0.625000  0.875000     0.001157
                              384:  0.208333  0.625000  0.958333     0.001157
                              385:  0.208333  0.708333  0.041667     0.001157
                              386:  0.208333  0.708333  0.125000     0.001157
                              387:  0.208333  0.708333  0.208333     0.001157
                              388:  0.208333  0.708333  0.291667     0.001157
                              389:  0.208333  0.708333  0.375000     0.001157
                              390:  0.208333  0.708333  0.458333     0.001157
                              391:  0.208333  0.708333  0.541667     0.001157
                              392:  0.208333  0.708333  0.625000     0.001157
                              393:  0.208333  0.708333  0.708333     0.001157
                              394:  0.208333  0.708333  0.791667     0.001157
                              395:  0.208333  0.708333  0.875000     0.001157
                              396:  0.208333  0.708333  0.958333     0.001157
                              397:  0.208333  0.791667  0.041667     0.001157
                              398:  0.208333  0.791667  0.125000     0.001157
                              399:  0.208333  0.791667  0.208333     0.001157
                              400:  0.208333  0.791667  0.291667     0.001157
                              401:  0.208333  0.791667  0.375000     0.001157
                              402:  0.208333  0.791667  0.458333     0.001157
                              403:  0.208333  0.791667  0.541667     0.001157
                              404:  0.208333  0.791667  0.625000     0.001157
                              405:  0.208333  0.791667  0.708333     0.001157
                              406:  0.208333  0.791667  0.791667     0.001157
                              407:  0.208333  0.791667  0.875000     0.001157
                              408:  0.208333  0.791667  0.958333     0.001157
                              409:  0.208333  0.875000  0.041667     0.001157
                              410:  0.208333  0.875000  0.125000     0.001157
                              411:  0.208333  0.875000  0.208333     0.001157
                              412:  0.208333  0.875000  0.291667     0.001157
                              413:  0.208333  0.875000  0.375000     0.001157
                              414:  0.208333  0.875000  0.458333     0.001157
                              415:  0.208333  0.875000  0.541667     0.001157
                              416:  0.208333  0.875000  0.625000     0.001157
                              417:  0.208333  0.875000  0.708333     0.001157
                              418:  0.208333  0.875000  0.791667     0.001157
                              419:  0.208333  0.875000  0.875000     0.001157
                              420:  0.208333  0.875000  0.958333     0.001157
                              421:  0.208333  0.958333  0.041667     0.001157
                              422:  0.208333  0.958333  0.125000     0.001157
                              423:  0.208333  0.958333  0.208333     0.001157
                              424:  0.208333  0.958333  0.291667     0.001157
                              425:  0.208333  0.958333  0.375000     0.001157
                              426:  0.208333  0.958333  0.458333     0.001157
                              427:  0.208333  0.958333  0.541667     0.001157
                              428:  0.208333  0.958333  0.625000     0.001157
                              429:  0.208333  0.958333  0.708333     0.001157
                              430:  0.208333  0.958333  0.791667     0.001157
                              431:  0.208333  0.958333  0.875000     0.001157
                              432:  0.208333  0.958333  0.958333     0.001157
                              433:  0.291667  0.041667  0.041667     0.001157
                              434:  0.291667  0.041667  0.125000     0.001157
                              435:  0.291667  0.041667  0.208333     0.001157
                              436:  0.291667  0.041667  0.291667     0.001157
                              437:  0.291667  0.041667  0.375000     0.001157
                              438:  0.291667  0.041667  0.458333     0.001157
                              439:  0.291667  0.041667  0.541667     0.001157
                              440:  0.291667  0.041667  0.625000     0.001157
                              441:  0.291667  0.041667  0.708333     0.001157
                              442:  0.291667  0.041667  0.791667     0.001157
                              443:  0.291667  0.041667  0.875000     0.001157
                              444:  0.291667  0.041667  0.958333     0.001157
                              445:  0.291667  0.125000  0.041667     0.001157
                              446:  0.291667  0.125000  0.125000     0.001157
                              447:  0.291667  0.125000  0.208333     0.001157
                              448:  0.291667  0.125000  0.291667     0.001157
                              449:  0.291667  0.125000  0.375000     0.001157
                              450:  0.291667  0.125000  0.458333     0.001157
                              451:  0.291667  0.125000  0.541667     0.001157
                              452:  0.291667  0.125000  0.625000     0.001157
                              453:  0.291667  0.125000  0.708333     0.001157
                              454:  0.291667  0.125000  0.791667     0.001157
                              455:  0.291667  0.125000  0.875000     0.001157
                              456:  0.291667  0.125000  0.958333     0.001157
                              457:  0.291667  0.208333  0.041667     0.001157
                              458:  0.291667  0.208333  0.125000     0.001157
                              459:  0.291667  0.208333  0.208333     0.001157
                              460:  0.291667  0.208333  0.291667     0.001157
                              461:  0.291667  0.208333  0.375000     0.001157
                              462:  0.291667  0.208333  0.458333     0.001157
                              463:  0.291667  0.208333  0.541667     0.001157
                              464:  0.291667  0.208333  0.625000     0.001157
                              465:  0.291667  0.208333  0.708333     0.001157
                              466:  0.291667  0.208333  0.791667     0.001157
                              467:  0.291667  0.208333  0.875000     0.001157
                              468:  0.291667  0.208333  0.958333     0.001157
                              469:  0.291667  0.291667  0.041667     0.001157
                              470:  0.291667  0.291667  0.125000     0.001157
                              471:  0.291667  0.291667  0.208333     0.001157
                              472:  0.291667  0.291667  0.291667     0.001157
                              473:  0.291667  0.291667  0.375000     0.001157
                              474:  0.291667  0.291667  0.458333     0.001157
                              475:  0.291667  0.291667  0.541667     0.001157
                              476:  0.291667  0.291667  0.625000     0.001157
                              477:  0.291667  0.291667  0.708333     0.001157
                              478:  0.291667  0.291667  0.791667     0.001157
                              479:  0.291667  0.291667  0.875000     0.001157
                              480:  0.291667  0.291667  0.958333     0.001157
                              481:  0.291667  0.375000  0.041667     0.001157
                              482:  0.291667  0.375000  0.125000     0.001157
                              483:  0.291667  0.375000  0.208333     0.001157
                              484:  0.291667  0.375000  0.291667     0.001157
                              485:  0.291667  0.375000  0.375000     0.001157
                              486:  0.291667  0.375000  0.458333     0.001157
                              487:  0.291667  0.375000  0.541667     0.001157
                              488:  0.291667  0.375000  0.625000     0.001157
                              489:  0.291667  0.375000  0.708333     0.001157
                              490:  0.291667  0.375000  0.791667     0.001157
                              491:  0.291667  0.375000  0.875000     0.001157
                              492:  0.291667  0.375000  0.958333     0.001157
                              493:  0.291667  0.458333  0.041667     0.001157
                              494:  0.291667  0.458333  0.125000     0.001157
                              495:  0.291667  0.458333  0.208333     0.001157
                              496:  0.291667  0.458333  0.291667     0.001157
                              497:  0.291667  0.458333  0.375000     0.001157
                              498:  0.291667  0.458333  0.458333     0.001157
                              499:  0.291667  0.458333  0.541667     0.001157
                              500:  0.291667  0.458333  0.625000     0.001157
                              501:  0.291667  0.458333  0.708333     0.001157
                              502:  0.291667  0.458333  0.791667     0.001157
                              503:  0.291667  0.458333  0.875000     0.001157
                              504:  0.291667  0.458333  0.958333     0.001157
                              505:  0.291667  0.541667  0.041667     0.001157
                              506:  0.291667  0.541667  0.125000     0.001157
                              507:  0.291667  0.541667  0.208333     0.001157
                              508:  0.291667  0.541667  0.291667     0.001157
                              509:  0.291667  0.541667  0.375000     0.001157
                              510:  0.291667  0.541667  0.458333     0.001157
                              511:  0.291667  0.541667  0.541667     0.001157
                              512:  0.291667  0.541667  0.625000     0.001157
                              513:  0.291667  0.541667  0.708333     0.001157
                              514:  0.291667  0.541667  0.791667     0.001157
                              515:  0.291667  0.541667  0.875000     0.001157
                              516:  0.291667  0.541667  0.958333     0.001157
                              517:  0.291667  0.625000  0.041667     0.001157
                              518:  0.291667  0.625000  0.125000     0.001157
                              519:  0.291667  0.625000  0.208333     0.001157
                              520:  0.291667  0.625000  0.291667     0.001157
                              521:  0.291667  0.625000  0.375000     0.001157
                              522:  0.291667  0.625000  0.458333     0.001157
                              523:  0.291667  0.625000  0.541667     0.001157
                              524:  0.291667  0.625000  0.625000     0.001157
                              525:  0.291667  0.625000  0.708333     0.001157
                              526:  0.291667  0.625000  0.791667     0.001157
                              527:  0.291667  0.625000  0.875000     0.001157
                              528:  0.291667  0.625000  0.958333     0.001157
                              529:  0.291667  0.708333  0.041667     0.001157
                              530:  0.291667  0.708333  0.125000     0.001157
                              531:  0.291667  0.708333  0.208333     0.001157
                              532:  0.291667  0.708333  0.291667     0.001157
                              533:  0.291667  0.708333  0.375000     0.001157
                              534:  0.291667  0.708333  0.458333     0.001157
                              535:  0.291667  0.708333  0.541667     0.001157
                              536:  0.291667  0.708333  0.625000     0.001157
                              537:  0.291667  0.708333  0.708333     0.001157
                              538:  0.291667  0.708333  0.791667     0.001157
                              539:  0.291667  0.708333  0.875000     0.001157
                              540:  0.291667  0.708333  0.958333     0.001157
                              541:  0.291667  0.791667  0.041667     0.001157
                              542:  0.291667  0.791667  0.125000     0.001157
                              543:  0.291667  0.791667  0.208333     0.001157
                              544:  0.291667  0.791667  0.291667     0.001157
                              545:  0.291667  0.791667  0.375000     0.001157
                              546:  0.291667  0.791667  0.458333     0.001157
                              547:  0.291667  0.791667  0.541667     0.001157
                              548:  0.291667  0.791667  0.625000     0.001157
                              549:  0.291667  0.791667  0.708333     0.001157
                              550:  0.291667  0.791667  0.791667     0.001157
                              551:  0.291667  0.791667  0.875000     0.001157
                              552:  0.291667  0.791667  0.958333     0.001157
                              553:  0.291667  0.875000  0.041667     0.001157
                              554:  0.291667  0.875000  0.125000     0.001157
                              555:  0.291667  0.875000  0.208333     0.001157
                              556:  0.291667  0.875000  0.291667     0.001157
                              557:  0.291667  0.875000  0.375000     0.001157
                              558:  0.291667  0.875000  0.458333     0.001157
                              559:  0.291667  0.875000  0.541667     0.001157
                              560:  0.291667  0.875000  0.625000     0.001157
                              561:  0.291667  0.875000  0.708333     0.001157
                              562:  0.291667  0.875000  0.791667     0.001157
                              563:  0.291667  0.875000  0.875000     0.001157
                              564:  0.291667  0.875000  0.958333     0.001157
                              565:  0.291667  0.958333  0.041667     0.001157
                              566:  0.291667  0.958333  0.125000     0.001157
                              567:  0.291667  0.958333  0.208333     0.001157
                              568:  0.291667  0.958333  0.291667     0.001157
                              569:  0.291667  0.958333  0.375000     0.001157
                              570:  0.291667  0.958333  0.458333     0.001157
                              571:  0.291667  0.958333  0.541667     0.001157
                              572:  0.291667  0.958333  0.625000     0.001157
                              573:  0.291667  0.958333  0.708333     0.001157
                              574:  0.291667  0.958333  0.791667     0.001157
                              575:  0.291667  0.958333  0.875000     0.001157
                              576:  0.291667  0.958333  0.958333     0.001157
                              577:  0.375000  0.041667  0.041667     0.001157
                              578:  0.375000  0.041667  0.125000     0.001157
                              579:  0.375000  0.041667  0.208333     0.001157
                              580:  0.375000  0.041667  0.291667     0.001157
                              581:  0.375000  0.041667  0.375000     0.001157
                              582:  0.375000  0.041667  0.458333     0.001157
                              583:  0.375000  0.041667  0.541667     0.001157
                              584:  0.375000  0.041667  0.625000     0.001157
                              585:  0.375000  0.041667  0.708333     0.001157
                              586:  0.375000  0.041667  0.791667     0.001157
                              587:  0.375000  0.041667  0.875000     0.001157
                              588:  0.375000  0.041667  0.958333     0.001157
                              589:  0.375000  0.125000  0.041667     0.001157
                              590:  0.375000  0.125000  0.125000     0.001157
                              591:  0.375000  0.125000  0.208333     0.001157
                              592:  0.375000  0.125000  0.291667     0.001157
                              593:  0.375000  0.125000  0.375000     0.001157
                              594:  0.375000  0.125000  0.458333     0.001157
                              595:  0.375000  0.125000  0.541667     0.001157
                              596:  0.375000  0.125000  0.625000     0.001157
                              597:  0.375000  0.125000  0.708333     0.001157
                              598:  0.375000  0.125000  0.791667     0.001157
                              599:  0.375000  0.125000  0.875000     0.001157
                              600:  0.375000  0.125000  0.958333     0.001157
                              601:  0.375000  0.208333  0.041667     0.001157
                              602:  0.375000  0.208333  0.125000     0.001157
                              603:  0.375000  0.208333  0.208333     0.001157
                              604:  0.375000  0.208333  0.291667     0.001157
                              605:  0.375000  0.208333  0.375000     0.001157
                              606:  0.375000  0.208333  0.458333     0.001157
                              607:  0.375000  0.208333  0.541667     0.001157
                              608:  0.375000  0.208333  0.625000     0.001157
                              609:  0.375000  0.208333  0.708333     0.001157
                              610:  0.375000  0.208333  0.791667     0.001157
                              611:  0.375000  0.208333  0.875000     0.001157
                              612:  0.375000  0.208333  0.958333     0.001157
                              613:  0.375000  0.291667  0.041667     0.001157
                              614:  0.375000  0.291667  0.125000     0.001157
                              615:  0.375000  0.291667  0.208333     0.001157
                              616:  0.375000  0.291667  0.291667     0.001157
                              617:  0.375000  0.291667  0.375000     0.001157
                              618:  0.375000  0.291667  0.458333     0.001157
                              619:  0.375000  0.291667  0.541667     0.001157
                              620:  0.375000  0.291667  0.625000     0.001157
                              621:  0.375000  0.291667  0.708333     0.001157
                              622:  0.375000  0.291667  0.791667     0.001157
                              623:  0.375000  0.291667  0.875000     0.001157
                              624:  0.375000  0.291667  0.958333     0.001157
                              625:  0.375000  0.375000  0.041667     0.001157
                              626:  0.375000  0.375000  0.125000     0.001157
                              627:  0.375000  0.375000  0.208333     0.001157
                              628:  0.375000  0.375000  0.291667     0.001157
                              629:  0.375000  0.375000  0.375000     0.001157
                              630:  0.375000  0.375000  0.458333     0.001157
                              631:  0.375000  0.375000  0.541667     0.001157
                              632:  0.375000  0.375000  0.625000     0.001157
                              633:  0.375000  0.375000  0.708333     0.001157
                              634:  0.375000  0.375000  0.791667     0.001157
                              635:  0.375000  0.375000  0.875000     0.001157
                              636:  0.375000  0.375000  0.958333     0.001157
                              637:  0.375000  0.458333  0.041667     0.001157
                              638:  0.375000  0.458333  0.125000     0.001157
                              639:  0.375000  0.458333  0.208333     0.001157
                              640:  0.375000  0.458333  0.291667     0.001157
                              641:  0.375000  0.458333  0.375000     0.001157
                              642:  0.375000  0.458333  0.458333     0.001157
                              643:  0.375000  0.458333  0.541667     0.001157
                              644:  0.375000  0.458333  0.625000     0.001157
                              645:  0.375000  0.458333  0.708333     0.001157
                              646:  0.375000  0.458333  0.791667     0.001157
                              647:  0.375000  0.458333  0.875000     0.001157
                              648:  0.375000  0.458333  0.958333     0.001157
                              649:  0.375000  0.541667  0.041667     0.001157
                              650:  0.375000  0.541667  0.125000     0.001157
                              651:  0.375000  0.541667  0.208333     0.001157
                              652:  0.375000  0.541667  0.291667     0.001157
                              653:  0.375000  0.541667  0.375000     0.001157
                              654:  0.375000  0.541667  0.458333     0.001157
                              655:  0.375000  0.541667  0.541667     0.001157
                              656:  0.375000  0.541667  0.625000     0.001157
                              657:  0.375000  0.541667  0.708333     0.001157
                              658:  0.375000  0.541667  0.791667     0.001157
                              659:  0.375000  0.541667  0.875000     0.001157
                              660:  0.375000  0.541667  0.958333     0.001157
                              661:  0.375000  0.625000  0.041667     0.001157
                              662:  0.375000  0.625000  0.125000     0.001157
                              663:  0.375000  0.625000  0.208333     0.001157
                              664:  0.375000  0.625000  0.291667     0.001157
                              665:  0.375000  0.625000  0.375000     0.001157
                              666:  0.375000  0.625000  0.458333     0.001157
                              667:  0.375000  0.625000  0.541667     0.001157
                              668:  0.375000  0.625000  0.625000     0.001157
                              669:  0.375000  0.625000  0.708333     0.001157
                              670:  0.375000  0.625000  0.791667     0.001157
                              671:  0.375000  0.625000  0.875000     0.001157
                              672:  0.375000  0.625000  0.958333     0.001157
                              673:  0.375000  0.708333  0.041667     0.001157
                              674:  0.375000  0.708333  0.125000     0.001157
                              675:  0.375000  0.708333  0.208333     0.001157
                              676:  0.375000  0.708333  0.291667     0.001157
                              677:  0.375000  0.708333  0.375000     0.001157
                              678:  0.375000  0.708333  0.458333     0.001157
                              679:  0.375000  0.708333  0.541667     0.001157
                              680:  0.375000  0.708333  0.625000     0.001157
                              681:  0.375000  0.708333  0.708333     0.001157
                              682:  0.375000  0.708333  0.791667     0.001157
                              683:  0.375000  0.708333  0.875000     0.001157
                              684:  0.375000  0.708333  0.958333     0.001157
                              685:  0.375000  0.791667  0.041667     0.001157
                              686:  0.375000  0.791667  0.125000     0.001157
                              687:  0.375000  0.791667  0.208333     0.001157
                              688:  0.375000  0.791667  0.291667     0.001157
                              689:  0.375000  0.791667  0.375000     0.001157
                              690:  0.375000  0.791667  0.458333     0.001157
                              691:  0.375000  0.791667  0.541667     0.001157
                              692:  0.375000  0.791667  0.625000     0.001157
                              693:  0.375000  0.791667  0.708333     0.001157
                              694:  0.375000  0.791667  0.791667     0.001157
                              695:  0.375000  0.791667  0.875000     0.001157
                              696:  0.375000  0.791667  0.958333     0.001157
                              697:  0.375000  0.875000  0.041667     0.001157
                              698:  0.375000  0.875000  0.125000     0.001157
                              699:  0.375000  0.875000  0.208333     0.001157
                              700:  0.375000  0.875000  0.291667     0.001157
                              701:  0.375000  0.875000  0.375000     0.001157
                              702:  0.375000  0.875000  0.458333     0.001157
                              703:  0.375000  0.875000  0.541667     0.001157
                              704:  0.375000  0.875000  0.625000     0.001157
                              705:  0.375000  0.875000  0.708333     0.001157
                              706:  0.375000  0.875000  0.791667     0.001157
                              707:  0.375000  0.875000  0.875000     0.001157
                              708:  0.375000  0.875000  0.958333     0.001157
                              709:  0.375000  0.958333  0.041667     0.001157
                              710:  0.375000  0.958333  0.125000     0.001157
                              711:  0.375000  0.958333  0.208333     0.001157
                              712:  0.375000  0.958333  0.291667     0.001157
                              713:  0.375000  0.958333  0.375000     0.001157
                              714:  0.375000  0.958333  0.458333     0.001157
                              715:  0.375000  0.958333  0.541667     0.001157
                              716:  0.375000  0.958333  0.625000     0.001157
                              717:  0.375000  0.958333  0.708333     0.001157
                              718:  0.375000  0.958333  0.791667     0.001157
                              719:  0.375000  0.958333  0.875000     0.001157
                              720:  0.375000  0.958333  0.958333     0.001157
                              721:  0.458333  0.041667  0.041667     0.001157
                              722:  0.458333  0.041667  0.125000     0.001157
                              723:  0.458333  0.041667  0.208333     0.001157
                              724:  0.458333  0.041667  0.291667     0.001157
                              725:  0.458333  0.041667  0.375000     0.001157
                              726:  0.458333  0.041667  0.458333     0.001157
                              727:  0.458333  0.041667  0.541667     0.001157
                              728:  0.458333  0.041667  0.625000     0.001157
                              729:  0.458333  0.041667  0.708333     0.001157
                              730:  0.458333  0.041667  0.791667     0.001157
                              731:  0.458333  0.041667  0.875000     0.001157
                              732:  0.458333  0.041667  0.958333     0.001157
                              733:  0.458333  0.125000  0.041667     0.001157
                              734:  0.458333  0.125000  0.125000     0.001157
                              735:  0.458333  0.125000  0.208333     0.001157
                              736:  0.458333  0.125000  0.291667     0.001157
                              737:  0.458333  0.125000  0.375000     0.001157
                              738:  0.458333  0.125000  0.458333     0.001157
                              739:  0.458333  0.125000  0.541667     0.001157
                              740:  0.458333  0.125000  0.625000     0.001157
                              741:  0.458333  0.125000  0.708333     0.001157
                              742:  0.458333  0.125000  0.791667     0.001157
                              743:  0.458333  0.125000  0.875000     0.001157
                              744:  0.458333  0.125000  0.958333     0.001157
                              745:  0.458333  0.208333  0.041667     0.001157
                              746:  0.458333  0.208333  0.125000     0.001157
                              747:  0.458333  0.208333  0.208333     0.001157
                              748:  0.458333  0.208333  0.291667     0.001157
                              749:  0.458333  0.208333  0.375000     0.001157
                              750:  0.458333  0.208333  0.458333     0.001157
                              751:  0.458333  0.208333  0.541667     0.001157
                              752:  0.458333  0.208333  0.625000     0.001157
                              753:  0.458333  0.208333  0.708333     0.001157
                              754:  0.458333  0.208333  0.791667     0.001157
                              755:  0.458333  0.208333  0.875000     0.001157
                              756:  0.458333  0.208333  0.958333     0.001157
                              757:  0.458333  0.291667  0.041667     0.001157
                              758:  0.458333  0.291667  0.125000     0.001157
                              759:  0.458333  0.291667  0.208333     0.001157
                              760:  0.458333  0.291667  0.291667     0.001157
                              761:  0.458333  0.291667  0.375000     0.001157
                              762:  0.458333  0.291667  0.458333     0.001157
                              763:  0.458333  0.291667  0.541667     0.001157
                              764:  0.458333  0.291667  0.625000     0.001157
                              765:  0.458333  0.291667  0.708333     0.001157
                              766:  0.458333  0.291667  0.791667     0.001157
                              767:  0.458333  0.291667  0.875000     0.001157
                              768:  0.458333  0.291667  0.958333     0.001157
                              769:  0.458333  0.375000  0.041667     0.001157
                              770:  0.458333  0.375000  0.125000     0.001157
                              771:  0.458333  0.375000  0.208333     0.001157
                              772:  0.458333  0.375000  0.291667     0.001157
                              773:  0.458333  0.375000  0.375000     0.001157
                              774:  0.458333  0.375000  0.458333     0.001157
                              775:  0.458333  0.375000  0.541667     0.001157
                              776:  0.458333  0.375000  0.625000     0.001157
                              777:  0.458333  0.375000  0.708333     0.001157
                              778:  0.458333  0.375000  0.791667     0.001157
                              779:  0.458333  0.375000  0.875000     0.001157
                              780:  0.458333  0.375000  0.958333     0.001157
                              781:  0.458333  0.458333  0.041667     0.001157
                              782:  0.458333  0.458333  0.125000     0.001157
                              783:  0.458333  0.458333  0.208333     0.001157
                              784:  0.458333  0.458333  0.291667     0.001157
                              785:  0.458333  0.458333  0.375000     0.001157
                              786:  0.458333  0.458333  0.458333     0.001157
                              787:  0.458333  0.458333  0.541667     0.001157
                              788:  0.458333  0.458333  0.625000     0.001157
                              789:  0.458333  0.458333  0.708333     0.001157
                              790:  0.458333  0.458333  0.791667     0.001157
                              791:  0.458333  0.458333  0.875000     0.001157
                              792:  0.458333  0.458333  0.958333     0.001157
                              793:  0.458333  0.541667  0.041667     0.001157
                              794:  0.458333  0.541667  0.125000     0.001157
                              795:  0.458333  0.541667  0.208333     0.001157
                              796:  0.458333  0.541667  0.291667     0.001157
                              797:  0.458333  0.541667  0.375000     0.001157
                              798:  0.458333  0.541667  0.458333     0.001157
                              799:  0.458333  0.541667  0.541667     0.001157
                              800:  0.458333  0.541667  0.625000     0.001157
                              801:  0.458333  0.541667  0.708333     0.001157
                              802:  0.458333  0.541667  0.791667     0.001157
                              803:  0.458333  0.541667  0.875000     0.001157
                              804:  0.458333  0.541667  0.958333     0.001157
                              805:  0.458333  0.625000  0.041667     0.001157
                              806:  0.458333  0.625000  0.125000     0.001157
                              807:  0.458333  0.625000  0.208333     0.001157
                              808:  0.458333  0.625000  0.291667     0.001157
                              809:  0.458333  0.625000  0.375000     0.001157
                              810:  0.458333  0.625000  0.458333     0.001157
                              811:  0.458333  0.625000  0.541667     0.001157
                              812:  0.458333  0.625000  0.625000     0.001157
                              813:  0.458333  0.625000  0.708333     0.001157
                              814:  0.458333  0.625000  0.791667     0.001157
                              815:  0.458333  0.625000  0.875000     0.001157
                              816:  0.458333  0.625000  0.958333     0.001157
                              817:  0.458333  0.708333  0.041667     0.001157
                              818:  0.458333  0.708333  0.125000     0.001157
                              819:  0.458333  0.708333  0.208333     0.001157
                              820:  0.458333  0.708333  0.291667     0.001157
                              821:  0.458333  0.708333  0.375000     0.001157
                              822:  0.458333  0.708333  0.458333     0.001157
                              823:  0.458333  0.708333  0.541667     0.001157
                              824:  0.458333  0.708333  0.625000     0.001157
                              825:  0.458333  0.708333  0.708333     0.001157
                              826:  0.458333  0.708333  0.791667     0.001157
                              827:  0.458333  0.708333  0.875000     0.001157
                              828:  0.458333  0.708333  0.958333     0.001157
                              829:  0.458333  0.791667  0.041667     0.001157
                              830:  0.458333  0.791667  0.125000     0.001157
                              831:  0.458333  0.791667  0.208333     0.001157
                              832:  0.458333  0.791667  0.291667     0.001157
                              833:  0.458333  0.791667  0.375000     0.001157
                              834:  0.458333  0.791667  0.458333     0.001157
                              835:  0.458333  0.791667  0.541667     0.001157
                              836:  0.458333  0.791667  0.625000     0.001157
                              837:  0.458333  0.791667  0.708333     0.001157
                              838:  0.458333  0.791667  0.791667     0.001157
                              839:  0.458333  0.791667  0.875000     0.001157
                              840:  0.458333  0.791667  0.958333     0.001157
                              841:  0.458333  0.875000  0.041667     0.001157
                              842:  0.458333  0.875000  0.125000     0.001157
                              843:  0.458333  0.875000  0.208333     0.001157
                              844:  0.458333  0.875000  0.291667     0.001157
                              845:  0.458333  0.875000  0.375000     0.001157
                              846:  0.458333  0.875000  0.458333     0.001157
                              847:  0.458333  0.875000  0.541667     0.001157
                              848:  0.458333  0.875000  0.625000     0.001157
                              849:  0.458333  0.875000  0.708333     0.001157
                              850:  0.458333  0.875000  0.791667     0.001157
                              851:  0.458333  0.875000  0.875000     0.001157
                              852:  0.458333  0.875000  0.958333     0.001157
                              853:  0.458333  0.958333  0.041667     0.001157
                              854:  0.458333  0.958333  0.125000     0.001157
                              855:  0.458333  0.958333  0.208333     0.001157
                              856:  0.458333  0.958333  0.291667     0.001157
                              857:  0.458333  0.958333  0.375000     0.001157
                              858:  0.458333  0.958333  0.458333     0.001157
                              859:  0.458333  0.958333  0.541667     0.001157
                              860:  0.458333  0.958333  0.625000     0.001157
                              861:  0.458333  0.958333  0.708333     0.001157
                              862:  0.458333  0.958333  0.791667     0.001157
                              863:  0.458333  0.958333  0.875000     0.001157
                              864:  0.458333  0.958333  0.958333     0.001157

K-points in absolute space:     1:  0.000964  0.001670  0.006233
                                2:  0.000964  0.001670  0.018699
                                3:  0.000964  0.001670  0.031165
                                4:  0.000964  0.001670  0.043631
                                5:  0.000964  0.001670  0.056096
                                6:  0.000964  0.001670  0.068562
                                7:  0.000964  0.001670  0.081028
                                8:  0.000964  0.001670  0.093494
                                9:  0.000964  0.001670  0.105960
                               10:  0.000964  0.001670  0.118426
                               11:  0.000964  0.001670  0.130892
                               12:  0.000964  0.001670  0.143357
                               13:  0.000964  0.003897  0.006233
                               14:  0.000964  0.003897  0.018699
                               15:  0.000964  0.003897  0.031165
                               16:  0.000964  0.003897  0.043631
                               17:  0.000964  0.003897  0.056096
                               18:  0.000964  0.003897  0.068562
                               19:  0.000964  0.003897  0.081028
                               20:  0.000964  0.003897  0.093494
                               21:  0.000964  0.003897  0.105960
                               22:  0.000964  0.003897  0.118426
                               23:  0.000964  0.003897  0.130892
                               24:  0.000964  0.003897  0.143357
                               25:  0.000964  0.006124  0.006233
                               26:  0.000964  0.006124  0.018699
                               27:  0.000964  0.006124  0.031165
                               28:  0.000964  0.006124  0.043631
                               29:  0.000964  0.006124  0.056096
                               30:  0.000964  0.006124  0.068562
                               31:  0.000964  0.006124  0.081028
                               32:  0.000964  0.006124  0.093494
                               33:  0.000964  0.006124  0.105960
                               34:  0.000964  0.006124  0.118426
                               35:  0.000964  0.006124  0.130892
                               36:  0.000964  0.006124  0.143357
                               37:  0.000964  0.008351  0.006233
                               38:  0.000964  0.008351  0.018699
                               39:  0.000964  0.008351  0.031165
                               40:  0.000964  0.008351  0.043631
                               41:  0.000964  0.008351  0.056096
                               42:  0.000964  0.008351  0.068562
                               43:  0.000964  0.008351  0.081028
                               44:  0.000964  0.008351  0.093494
                               45:  0.000964  0.008351  0.105960
                               46:  0.000964  0.008351  0.118426
                               47:  0.000964  0.008351  0.130892
                               48:  0.000964  0.008351  0.143357
                               49:  0.000964  0.010579  0.006233
                               50:  0.000964  0.010579  0.018699
                               51:  0.000964  0.010579  0.031165
                               52:  0.000964  0.010579  0.043631
                               53:  0.000964  0.010579  0.056096
                               54:  0.000964  0.010579  0.068562
                               55:  0.000964  0.010579  0.081028
                               56:  0.000964  0.010579  0.093494
                               57:  0.000964  0.010579  0.105960
                               58:  0.000964  0.010579  0.118426
                               59:  0.000964  0.010579  0.130892
                               60:  0.000964  0.010579  0.143357
                               61:  0.000964  0.012806  0.006233
                               62:  0.000964  0.012806  0.018699
                               63:  0.000964  0.012806  0.031165
                               64:  0.000964  0.012806  0.043631
                               65:  0.000964  0.012806  0.056096
                               66:  0.000964  0.012806  0.068562
                               67:  0.000964  0.012806  0.081028
                               68:  0.000964  0.012806  0.093494
                               69:  0.000964  0.012806  0.105960
                               70:  0.000964  0.012806  0.118426
                               71:  0.000964  0.012806  0.130892
                               72:  0.000964  0.012806  0.143357
                               73:  0.000964  0.015033  0.006233
                               74:  0.000964  0.015033  0.018699
                               75:  0.000964  0.015033  0.031165
                               76:  0.000964  0.015033  0.043631
                               77:  0.000964  0.015033  0.056096
                               78:  0.000964  0.015033  0.068562
                               79:  0.000964  0.015033  0.081028
                               80:  0.000964  0.015033  0.093494
                               81:  0.000964  0.015033  0.105960
                               82:  0.000964  0.015033  0.118426
                               83:  0.000964  0.015033  0.130892
                               84:  0.000964  0.015033  0.143357
                               85:  0.000964  0.017260  0.006233
                               86:  0.000964  0.017260  0.018699
                               87:  0.000964  0.017260  0.031165
                               88:  0.000964  0.017260  0.043631
                               89:  0.000964  0.017260  0.056096
                               90:  0.000964  0.017260  0.068562
                               91:  0.000964  0.017260  0.081028
                               92:  0.000964  0.017260  0.093494
                               93:  0.000964  0.017260  0.105960
                               94:  0.000964  0.017260  0.118426
                               95:  0.000964  0.017260  0.130892
                               96:  0.000964  0.017260  0.143357
                               97:  0.000964  0.019487  0.006233
                               98:  0.000964  0.019487  0.018699
                               99:  0.000964  0.019487  0.031165
                              100:  0.000964  0.019487  0.043631
                              101:  0.000964  0.019487  0.056096
                              102:  0.000964  0.019487  0.068562
                              103:  0.000964  0.019487  0.081028
                              104:  0.000964  0.019487  0.093494
                              105:  0.000964  0.019487  0.105960
                              106:  0.000964  0.019487  0.118426
                              107:  0.000964  0.019487  0.130892
                              108:  0.000964  0.019487  0.143357
                              109:  0.000964  0.021714  0.006233
                              110:  0.000964  0.021714  0.018699
                              111:  0.000964  0.021714  0.031165
                              112:  0.000964  0.021714  0.043631
                              113:  0.000964  0.021714  0.056096
                              114:  0.000964  0.021714  0.068562
                              115:  0.000964  0.021714  0.081028
                              116:  0.000964  0.021714  0.093494
                              117:  0.000964  0.021714  0.105960
                              118:  0.000964  0.021714  0.118426
                              119:  0.000964  0.021714  0.130892
                              120:  0.000964  0.021714  0.143357
                              121:  0.000964  0.023941  0.006233
                              122:  0.000964  0.023941  0.018699
                              123:  0.000964  0.023941  0.031165
                              124:  0.000964  0.023941  0.043631
                              125:  0.000964  0.023941  0.056096
                              126:  0.000964  0.023941  0.068562
                              127:  0.000964  0.023941  0.081028
                              128:  0.000964  0.023941  0.093494
                              129:  0.000964  0.023941  0.105960
                              130:  0.000964  0.023941  0.118426
                              131:  0.000964  0.023941  0.130892
                              132:  0.000964  0.023941  0.143357
                              133:  0.000964  0.026168  0.006233
                              134:  0.000964  0.026168  0.018699
                              135:  0.000964  0.026168  0.031165
                              136:  0.000964  0.026168  0.043631
                              137:  0.000964  0.026168  0.056096
                              138:  0.000964  0.026168  0.068562
                              139:  0.000964  0.026168  0.081028
                              140:  0.000964  0.026168  0.093494
                              141:  0.000964  0.026168  0.105960
                              142:  0.000964  0.026168  0.118426
                              143:  0.000964  0.026168  0.130892
                              144:  0.000964  0.026168  0.143357
                              145:  0.002893  0.002784  0.006233
                              146:  0.002893  0.002784  0.018699
                              147:  0.002893  0.002784  0.031165
                              148:  0.002893  0.002784  0.043631
                              149:  0.002893  0.002784  0.056096
                              150:  0.002893  0.002784  0.068562
                              151:  0.002893  0.002784  0.081028
[...]
                              583:  0.008679  0.006124  0.081028
                              584:  0.008679  0.006124  0.093494
                              585:  0.008679  0.006124  0.105960
                              586:  0.008679  0.006124  0.118426
                              587:  0.008679  0.006124  0.130892
                              588:  0.008679  0.006124  0.143357
                              589:  0.008679  0.008351  0.006233
                              590:  0.008679  0.008351  0.018699
                              591:  0.008679  0.008351  0.031165
                              592:  0.008679  0.008351  0.043631
                              593:  0.008679  0.008351  0.056096
                              594:  0.008679  0.008351  0.068562
                              595:  0.008679  0.008351  0.081028
                              596:  0.008679  0.008351  0.093494
                              597:  0.008679  0.008351  0.105960
                              598:  0.008679  0.008351  0.118426
                              599:  0.008679  0.008351  0.130892
                              600:  0.008679  0.008351  0.143357
                              601:  0.008679  0.010579  0.006233
                              602:  0.008679  0.010579  0.018699
                              603:  0.008679  0.010579  0.031165
                              604:  0.008679  0.010579  0.043631
                              605:  0.008679  0.010579  0.056096
                              606:  0.008679  0.010579  0.068562
                              607:  0.008679  0.010579  0.081028
                              608:  0.008679  0.010579  0.093494
                              609:  0.008679  0.010579  0.105960
                              610:  0.008679  0.010579  0.118426
                              611:  0.008679  0.010579  0.130892
                              612:  0.008679  0.010579  0.143357
                              613:  0.008679  0.012806  0.006233
                              614:  0.008679  0.012806  0.018699
                              615:  0.008679  0.012806  0.031165
                              616:  0.008679  0.012806  0.043631
                              617:  0.008679  0.012806  0.056096
                              618:  0.008679  0.012806  0.068562
                              619:  0.008679  0.012806  0.081028
                              620:  0.008679  0.012806  0.093494
                              621:  0.008679  0.012806  0.105960
                              622:  0.008679  0.012806  0.118426
                              623:  0.008679  0.012806  0.130892
                              624:  0.008679  0.012806  0.143357
                              625:  0.008679  0.015033  0.006233
                              626:  0.008679  0.015033  0.018699
                              627:  0.008679  0.015033  0.031165
                              628:  0.008679  0.015033  0.043631
                              629:  0.008679  0.015033  0.056096
                              630:  0.008679  0.015033  0.068562
                              631:  0.008679  0.015033  0.081028
                              632:  0.008679  0.015033  0.093494
                              633:  0.008679  0.015033  0.105960
                              634:  0.008679  0.015033  0.118426
                              635:  0.008679  0.015033  0.130892
                              636:  0.008679  0.015033  0.143357
                              637:  0.008679  0.017260  0.006233
                              638:  0.008679  0.017260  0.018699
                              639:  0.008679  0.017260  0.031165
                              640:  0.008679  0.017260  0.043631
                              641:  0.008679  0.017260  0.056096
                              642:  0.008679  0.017260  0.068562
                              643:  0.008679  0.017260  0.081028
                              644:  0.008679  0.017260  0.093494
                              645:  0.008679  0.017260  0.105960
                              646:  0.008679  0.017260  0.118426
                              647:  0.008679  0.017260  0.130892
                              648:  0.008679  0.017260  0.143357
                              649:  0.008679  0.019487  0.006233
                              650:  0.008679  0.019487  0.018699
                              651:  0.008679  0.019487  0.031165
                              652:  0.008679  0.019487  0.043631
                              653:  0.008679  0.019487  0.056096
                              654:  0.008679  0.019487  0.068562
                              655:  0.008679  0.019487  0.081028
                              656:  0.008679  0.019487  0.093494
                              657:  0.008679  0.019487  0.105960
                              658:  0.008679  0.019487  0.118426
                              659:  0.008679  0.019487  0.130892
                              660:  0.008679  0.019487  0.143357
                              661:  0.008679  0.021714  0.006233
                              662:  0.008679  0.021714  0.018699
                              663:  0.008679  0.021714  0.031165
                              664:  0.008679  0.021714  0.043631
                              665:  0.008679  0.021714  0.056096
                              666:  0.008679  0.021714  0.068562
                              667:  0.008679  0.021714  0.081028
                              668:  0.008679  0.021714  0.093494
                              669:  0.008679  0.021714  0.105960
                              670:  0.008679  0.021714  0.118426
                              671:  0.008679  0.021714  0.130892
                              672:  0.008679  0.021714  0.143357
                              673:  0.008679  0.023941  0.006233
                              674:  0.008679  0.023941  0.018699
                              675:  0.008679  0.023941  0.031165
                              676:  0.008679  0.023941  0.043631
                              677:  0.008679  0.023941  0.056096
                              678:  0.008679  0.023941  0.068562
                              679:  0.008679  0.023941  0.081028
                              680:  0.008679  0.023941  0.093494
                              681:  0.008679  0.023941  0.105960
                              682:  0.008679  0.023941  0.118426
                              683:  0.008679  0.023941  0.130892
                              684:  0.008679  0.023941  0.143357
                              685:  0.008679  0.026168  0.006233
                              686:  0.008679  0.026168  0.018699
                              687:  0.008679  0.026168  0.031165
                              688:  0.008679  0.026168  0.043631
                              689:  0.008679  0.026168  0.056096
                              690:  0.008679  0.026168  0.068562
                              691:  0.008679  0.026168  0.081028
                              692:  0.008679  0.026168  0.093494
                              693:  0.008679  0.026168  0.105960
                              694:  0.008679  0.026168  0.118426
                              695:  0.008679  0.026168  0.130892
                              696:  0.008679  0.026168  0.143357
                              697:  0.008679  0.028395  0.006233
                              698:  0.008679  0.028395  0.018699
                              699:  0.008679  0.028395  0.031165
                              700:  0.008679  0.028395  0.043631
                              701:  0.008679  0.028395  0.056096
                              702:  0.008679  0.028395  0.068562
                              703:  0.008679  0.028395  0.081028
                              704:  0.008679  0.028395  0.093494
                              705:  0.008679  0.028395  0.105960
                              706:  0.008679  0.028395  0.118426
                              707:  0.008679  0.028395  0.130892
                              708:  0.008679  0.028395  0.143357
                              709:  0.008679  0.030622  0.006233
                              710:  0.008679  0.030622  0.018699
                              711:  0.008679  0.030622  0.031165
                              712:  0.008679  0.030622  0.043631
                              713:  0.008679  0.030622  0.056096
                              714:  0.008679  0.030622  0.068562
                              715:  0.008679  0.030622  0.081028
                              716:  0.008679  0.030622  0.093494
                              717:  0.008679  0.030622  0.105960
                              718:  0.008679  0.030622  0.118426
                              719:  0.008679  0.030622  0.130892
                              720:  0.008679  0.030622  0.143357
                              721:  0.010608  0.007238  0.006233
                              722:  0.010608  0.007238  0.018699
                              723:  0.010608  0.007238  0.031165
                              724:  0.010608  0.007238  0.043631
                              725:  0.010608  0.007238  0.056096
                              726:  0.010608  0.007238  0.068562
                              727:  0.010608  0.007238  0.081028
                              728:  0.010608  0.007238  0.093494
                              729:  0.010608  0.007238  0.105960
                              730:  0.010608  0.007238  0.118426
                              731:  0.010608  0.007238  0.130892
                              732:  0.010608  0.007238  0.143357
                              733:  0.010608  0.009465  0.006233
                              734:  0.010608  0.009465  0.018699
                              735:  0.010608  0.009465  0.031165
                              736:  0.010608  0.009465  0.043631
                              737:  0.010608  0.009465  0.056096
                              738:  0.010608  0.009465  0.068562
                              739:  0.010608  0.009465  0.081028
                              740:  0.010608  0.009465  0.093494
                              741:  0.010608  0.009465  0.105960
                              742:  0.010608  0.009465  0.118426
                              743:  0.010608  0.009465  0.130892
                              744:  0.010608  0.009465  0.143357
                              745:  0.010608  0.011692  0.006233
                              746:  0.010608  0.011692  0.018699
                              747:  0.010608  0.011692  0.031165
                              748:  0.010608  0.011692  0.043631
                              749:  0.010608  0.011692  0.056096
                              750:  0.010608  0.011692  0.068562
                              751:  0.010608  0.011692  0.081028
                              752:  0.010608  0.011692  0.093494
                              753:  0.010608  0.011692  0.105960
                              754:  0.010608  0.011692  0.118426
                              755:  0.010608  0.011692  0.130892
                              756:  0.010608  0.011692  0.143357
                              757:  0.010608  0.013919  0.006233
                              758:  0.010608  0.013919  0.018699
                              759:  0.010608  0.013919  0.031165
                              760:  0.010608  0.013919  0.043631
                              761:  0.010608  0.013919  0.056096
                              762:  0.010608  0.013919  0.068562
                              763:  0.010608  0.013919  0.081028
                              764:  0.010608  0.013919  0.093494
                              765:  0.010608  0.013919  0.105960
                              766:  0.010608  0.013919  0.118426
                              767:  0.010608  0.013919  0.130892
                              768:  0.010608  0.013919  0.143357
                              769:  0.010608  0.016146  0.006233
                              770:  0.010608  0.016146  0.018699
                              771:  0.010608  0.016146  0.031165
                              772:  0.010608  0.016146  0.043631
                              773:  0.010608  0.016146  0.056096
                              774:  0.010608  0.016146  0.068562
                              775:  0.010608  0.016146  0.081028
                              776:  0.010608  0.016146  0.093494
                              777:  0.010608  0.016146  0.105960
                              778:  0.010608  0.016146  0.118426
                              779:  0.010608  0.016146  0.130892
                              780:  0.010608  0.016146  0.143357
                              781:  0.010608  0.018373  0.006233
                              782:  0.010608  0.018373  0.018699
                              783:  0.010608  0.018373  0.031165
                              784:  0.010608  0.018373  0.043631
                              785:  0.010608  0.018373  0.056096
                              786:  0.010608  0.018373  0.068562
                              787:  0.010608  0.018373  0.081028
                              788:  0.010608  0.018373  0.093494
                              789:  0.010608  0.018373  0.105960
                              790:  0.010608  0.018373  0.118426
                              791:  0.010608  0.018373  0.130892
                              792:  0.010608  0.018373  0.143357
                              793:  0.010608  0.020600  0.006233
                              794:  0.010608  0.020600  0.018699
                              795:  0.010608  0.020600  0.031165
                              796:  0.010608  0.020600  0.043631
                              797:  0.010608  0.020600  0.056096
                              798:  0.010608  0.020600  0.068562
                              799:  0.010608  0.020600  0.081028
                              800:  0.010608  0.020600  0.093494
                              801:  0.010608  0.020600  0.105960
                              802:  0.010608  0.020600  0.118426
                              803:  0.010608  0.020600  0.130892
                              804:  0.010608  0.020600  0.143357
                              805:  0.010608  0.022827  0.006233
                              806:  0.010608  0.022827  0.018699
                              807:  0.010608  0.022827  0.031165
                              808:  0.010608  0.022827  0.043631
                              809:  0.010608  0.022827  0.056096
                              810:  0.010608  0.022827  0.068562
                              811:  0.010608  0.022827  0.081028
                              812:  0.010608  0.022827  0.093494
                              813:  0.010608  0.022827  0.105960
                              814:  0.010608  0.022827  0.118426
                              815:  0.010608  0.022827  0.130892
                              816:  0.010608  0.022827  0.143357
                              817:  0.010608  0.025054  0.006233
                              818:  0.010608  0.025054  0.018699
                              819:  0.010608  0.025054  0.031165
                              820:  0.010608  0.025054  0.043631
                              821:  0.010608  0.025054  0.056096
                              822:  0.010608  0.025054  0.068562
                              823:  0.010608  0.025054  0.081028
                              824:  0.010608  0.025054  0.093494
                              825:  0.010608  0.025054  0.105960
                              826:  0.010608  0.025054  0.118426
                              827:  0.010608  0.025054  0.130892
                              828:  0.010608  0.025054  0.143357
                              829:  0.010608  0.027282  0.006233
                              830:  0.010608  0.027282  0.018699
                              831:  0.010608  0.027282  0.031165
                              832:  0.010608  0.027282  0.043631
                              833:  0.010608  0.027282  0.056096
                              834:  0.010608  0.027282  0.068562
                              835:  0.010608  0.027282  0.081028
                              836:  0.010608  0.027282  0.093494
                              837:  0.010608  0.027282  0.105960
                              838:  0.010608  0.027282  0.118426
                              839:  0.010608  0.027282  0.130892
                              840:  0.010608  0.027282  0.143357
                              841:  0.010608  0.029509  0.006233
                              842:  0.010608  0.029509  0.018699
                              843:  0.010608  0.029509  0.031165
                              844:  0.010608  0.029509  0.043631
                              845:  0.010608  0.029509  0.056096
                              846:  0.010608  0.029509  0.068562
                              847:  0.010608  0.029509  0.081028
                              848:  0.010608  0.029509  0.093494
                              849:  0.010608  0.029509  0.105960
                              850:  0.010608  0.029509  0.118426
                              851:  0.010608  0.029509  0.130892
                              852:  0.010608  0.029509  0.143357
                              853:  0.010608  0.031736  0.006233
                              854:  0.010608  0.031736  0.018699
                              855:  0.010608  0.031736  0.031165
                              856:  0.010608  0.031736  0.043631
                              857:  0.010608  0.031736  0.056096
                              858:  0.010608  0.031736  0.068562
                              859:  0.010608  0.031736  0.081028
                              860:  0.010608  0.031736  0.093494
                              861:  0.010608  0.031736  0.105960
                              862:  0.010608  0.031736  0.118426
                              863:  0.010608  0.031736  0.130892
                              864:  0.010608  0.031736  0.143357

Using Lennard-Jones dispersion corrections
Full 3rd order correction    Yes
Damped SCC                   Yes
Damped species(s):           H                                                 
Extra options:
                             Mulliken analysis

--------------------------------------------------------------------------------

***  Geometry step: 0

 iSCC Total electronic   Diff electronic      SCC error    
    1    0.00000000E+00    0.00000000E+00    0.30267459E-05
>> Charges saved for restart in charges.bin

Total Energy:                     -104.5478653836 H        -2844.8922 eV
Extrapolated to 0K:               -104.5478653836 H        -2844.8922 eV
Total Mermin free energy:         -104.5478653836 H        -2844.8922 eV
Force related energy:             -104.5478653836 H        -2844.8922 eV


--------------------------------------------------------------------------------
DFTB+ running times                          cpu [s]             wall clock [s]
--------------------------------------------------------------------------------
Global initialisation                  +       0.02 (  0.1%)       0.05 (  0.2%)
Pre-SCC initialisation                 +       0.03 (  0.1%)       0.03 (  0.1%)
SCC                                    +      18.25 ( 71.3%)      18.35 ( 70.7%)
--------------------------------------------------------------------------------
Missing                                +       7.31 ( 28.6%)       7.52 ( 29.0%)
Total                                  =      25.61 (100.0%)      25.94 (100.0%)
--------------------------------------------------------------------------------